 Entering Gaussian System, Link 0=/opt/software/gaussian/g16.c01/g16
 Initial command:
 /opt/software/gaussian/g16.c01/l1.exe "/scratch/arhender/25257182/Gau-271576.inp" -scrdir="/scratch/arhender/25257182/"
 Entering Link 1 = /opt/software/gaussian/g16.c01/l1.exe PID=    271577.
  
 Copyright (c) 1988-2019, Gaussian, Inc.  All Rights Reserved.
  
 This is part of the Gaussian(R) 16 program.  It is based on
 the Gaussian(R) 09 system (copyright 2009, Gaussian, Inc.),
 the Gaussian(R) 03 system (copyright 2003, Gaussian, Inc.),
 the Gaussian(R) 98 system (copyright 1998, Gaussian, Inc.),
 the Gaussian(R) 94 system (copyright 1995, Gaussian, Inc.),
 the Gaussian 92(TM) system (copyright 1992, Gaussian, Inc.),
 the Gaussian 90(TM) system (copyright 1990, Gaussian, Inc.),
 the Gaussian 88(TM) system (copyright 1988, Gaussian, Inc.),
 the Gaussian 86(TM) system (copyright 1986, Carnegie Mellon
 University), and the Gaussian 82(TM) system (copyright 1983,
 Carnegie Mellon University). Gaussian is a federally registered
 trademark of Gaussian, Inc.
  
 This software contains proprietary and confidential information,
 including trade secrets, belonging to Gaussian, Inc.
  
 This software is provided under written license and may be
 used, copied, transmitted, or stored only in accord with that
 written license.
  
 The following legend is applicable only to US Government
 contracts under FAR:
  
                    RESTRICTED RIGHTS LEGEND
  
 Use, reproduction and disclosure by the US Government is
 subject to restrictions as set forth in subparagraphs (a)
 and (c) of the Commercial Computer Software - Restricted
 Rights clause in FAR 52.227-19.
  
 Gaussian, Inc.
 340 Quinnipiac St., Bldg. 40, Wallingford CT 06492
  
  
 ---------------------------------------------------------------
 Warning -- This program may not be used in any manner that
 competes with the business of Gaussian, Inc. or will provide
 assistance to any competitor of Gaussian, Inc.  The licensee
 of this program is prohibited from giving any competitor of
 Gaussian, Inc. access to this program.  By using this program,
 the user acknowledges that Gaussian, Inc. is engaged in the
 business of creating and licensing software in the field of
 computational chemistry and represents and warrants to the
 licensee that it is not a competitor of Gaussian, Inc. and that
 it will not use this program in any manner prohibited above.
 ---------------------------------------------------------------
  

 Cite this work as:
 Gaussian 16, Revision C.01,
 M. J. Frisch, G. W. Trucks, H. B. Schlegel, G. E. Scuseria, 
 M. A. Robb, J. R. Cheeseman, G. Scalmani, V. Barone, 
 G. A. Petersson, H. Nakatsuji, X. Li, M. Caricato, A. V. Marenich, 
 J. Bloino, B. G. Janesko, R. Gomperts, B. Mennucci, H. P. Hratchian, 
 J. V. Ortiz, A. F. Izmaylov, J. L. Sonnenberg, D. Williams-Young, 
 F. Ding, F. Lipparini, F. Egidi, J. Goings, B. Peng, A. Petrone, 
 T. Henderson, D. Ranasinghe, V. G. Zakrzewski, J. Gao, N. Rega, 
 G. Zheng, W. Liang, M. Hada, M. Ehara, K. Toyota, R. Fukuda, 
 J. Hasegawa, M. Ishida, T. Nakajima, Y. Honda, O. Kitao, H. Nakai, 
 T. Vreven, K. Throssell, J. A. Montgomery, Jr., J. E. Peralta, 
 F. Ogliaro, M. J. Bearpark, J. J. Heyd, E. N. Brothers, K. N. Kudin, 
 V. N. Staroverov, T. A. Keith, R. Kobayashi, J. Normand, 
 K. Raghavachari, A. P. Rendell, J. C. Burant, S. S. Iyengar, 
 J. Tomasi, M. Cossi, J. M. Millam, M. Klene, C. Adamo, R. Cammi, 
 J. W. Ochterski, R. L. Martin, K. Morokuma, O. Farkas, 
 J. B. Foresman, and D. J. Fox, Gaussian, Inc., Wallingford CT, 2019.
 
 ******************************************
 Gaussian 16:  ES64L-G16RevC.01  3-Jul-2019
                15-Feb-2024 
 ******************************************
 %chk=IRC_PbiL_collapseTo_QbiL_Forward.chk
 %mem=1600MB
 %nprocs=4
 Will use up to    4 processors via shared memory.
 ----------------------------------------------------------------------
 # irc=(forward,calcfc,maxpoints=100,maxcycle=100) wb97xd/def2tzvpp geo
 m=connectivity
 ----------------------------------------------------------------------
 1/6=100,10=4,18=10,22=1,26=3,38=1,42=100,44=3,57=2,172=1/1,23;
 2/12=2,17=6,18=5,29=1,40=1/2;
 3/5=44,7=202,11=2,25=1,30=1,71=2,74=-58,140=1/1,2,3;
 4//1;
 5/5=2,38=5/2;
 8/6=4,10=90,11=11/1;
 11/6=1,8=1,9=11,15=111,16=1/1,2,10;
 10/6=1,13=1/2;
 6/7=2,8=2,9=2,10=2,28=1/1;
 7/10=1,25=1/1,2,3,16;
 1/6=100,10=4,18=10,22=1,26=3,42=100,44=3/23(2);
 2/29=1/2;
 99/5=20/99;
 2/29=1/2;
 3/5=44,7=202,11=2,25=1,30=1,71=2,74=-58,140=1/1,2,3;
 4/5=5,16=3,69=1/1;
 5/5=2,38=5/2;
 8/6=4,10=90,11=11/1;
 11/6=1,8=1,9=11,15=111,16=1/1,2,10;
 10/6=1,13=1/2;
 7/10=1,25=1/1,2,3,16;
 1/6=100,18=10,22=1,26=3,42=100,44=3/23(-8);
 2/29=1/2;
 6/7=2,8=2,9=2,10=2,19=2,28=1/1;
 99/5=20,9=1/99;
 -----------------------------
 IRC for PbiL collapse to QbiL
 -----------------------------
 Symbolic Z-matrix:
 Charge = -1 Multiplicity = 1
 Si                    0.37595  -0.23707   0.05587 
 O                     0.95575  -0.93741  -1.35198 
 H                     0.30822  -1.57352  -1.6493 
 O                     2.31462   0.98092  -0.00969 
 H                     2.84588   0.46763  -0.61697 
 O                    -0.43139   1.22416  -0.18382 
 O                     1.18215  -0.48205   1.41102 
 H                     2.0121    0.25291   0.9231 
 O                    -1.1056   -1.12665   0.14338 
 C                    -2.17341  -0.26206   0.37348 
 H                    -3.10573  -0.68267  -0.02338 
 H                    -2.31329  -0.09045   1.45193 
 C                    -1.81125   1.05555  -0.31979 
 H                    -2.0869    1.00515  -1.38468 
 H                    -2.33979   1.90722   0.1238 
 
 IRC-IRC-IRC-IRC-IRC-IRC-IRC-IRC-IRC-IRC-IRC-IRC-IRC-IRC-IRC-IRC-IRC-IRC
 ------------------------------------------------------------------------
 INPUT DATA FOR L123
 ------------------------------------------------------------------------
 GENERAL PARAMETERS:
 Rxn path following direction = Forward
 Maximum points per path      = 100
 Step size                    =   0.100 bohr
 Integration scheme           = HPC                                 
    Redo corrector integration= Yes                                 
    DWI Weight Power          =  2
    DWI will use Hessian update vectors when possible.
    Max correction cycles     = 100
 Initial Hessian              = CalcFC
 Hessian evaluation           = All updating
 Hessian updating method      = Bofill                              
 ------------------------------------------------------------------------
 IRC-IRC-IRC-IRC-IRC-IRC-IRC-IRC-IRC-IRC-IRC-IRC-IRC-IRC-IRC-IRC-IRC-IRC
                          Input orientation:                          
 ---------------------------------------------------------------------
 Center     Atomic      Atomic             Coordinates (Angstroms)
 Number     Number       Type             X           Y           Z
 ---------------------------------------------------------------------
      1         14           0        0.375945   -0.237067    0.055865
      2          8           0        0.955749   -0.937408   -1.351984
      3          1           0        0.308222   -1.573520   -1.649303
      4          8           0        2.314618    0.980917   -0.009688
      5          1           0        2.845876    0.467634   -0.616968
      6          8           0       -0.431385    1.224156   -0.183820
      7          8           0        1.182147   -0.482054    1.411022
      8          1           0        2.012103    0.252906    0.923104
      9          8           0       -1.105597   -1.126646    0.143375
     10          6           0       -2.173411   -0.262062    0.373480
     11          1           0       -3.105729   -0.682673   -0.023380
     12          1           0       -2.313293   -0.090445    1.451928
     13          6           0       -1.811252    1.055552   -0.319790
     14          1           0       -2.086899    1.005150   -1.384680
     15          1           0       -2.339790    1.907221    0.123802
 ---------------------------------------------------------------------
                    Distance matrix (angstroms):
                    1          2          3          4          5
     1  Si   0.000000
     2  O    1.675914   0.000000
     3  H    2.167554   0.955159   0.000000
     4  O    2.290466   2.707075   3.638559   0.000000
     5  H    2.655159   2.467179   3.416389   0.956286   0.000000
     6  O    1.686536   2.821543   3.243709   2.762249   3.391221
     7  O    1.595754   2.809414   3.364615   2.332636   2.789739
     8  H    1.915513   2.776465   3.585571   1.221317   1.764400
     9  O    1.730311   2.553636   2.326430   4.020338   4.328278
    10  C    2.569187   3.636614   3.459780   4.672710   5.167851
    11  H    3.510968   4.280851   3.884880   5.669910   6.090743
    12  H    3.033561   4.389294   4.323134   4.970080   5.586484
    13  C    2.568231   3.562809   3.629297   4.138180   4.703488
    14  H    3.111892   3.610029   3.529330   4.611349   5.021013
    15  H    3.460896   4.596785   4.719261   4.747565   5.432521
                    6          7          8          9         10
     6  O    0.000000
     7  O    2.838690   0.000000
     8  H    2.852935   1.211221   0.000000
     9  O    2.467365   2.693734   3.497312   0.000000
    10  C    2.356710   3.519184   4.252741   1.393083   0.000000
    11  H    3.288442   4.525885   5.288038   2.055589   1.097100
    12  H    2.818763   3.517546   4.371109   2.060231   1.100940
    13  C    1.396763   3.784228   4.099643   2.339756   1.532282
    14  H    2.056880   4.551306   4.763775   2.800439   2.168971
    15  H    2.050175   4.446303   4.723835   3.275357   2.189934
                   11         12         13         14         15
    11  H    0.000000
    12  H    1.776295   0.000000
    13  C    2.187454   2.168949   0.000000
    14  H    2.395809   3.049250   1.101141   0.000000
    15  H    2.704788   2.399019   1.096114   1.775726   0.000000
 Symmetry turned off by external request.
 Stoichiometry    C2H7O5Si(1-)
 Framework group  C1[X(C2H7O5Si)]
 Deg. of freedom    39
 Full point group                 C1      NOp   1
 Rotational constants (GHZ):           2.9033227           1.4221106           1.3175015
 Standard basis: def2TZVPP (5D, 7F)
   357 basis functions,   545 primitive gaussians,   405 cartesian basis functions
    37 alpha electrons       37 beta electrons
       nuclear repulsion energy       536.6037835315 Hartrees.
 NAtoms=   15 NActive=   15 NUniq=   15 SFac= 1.00D+00 NAtFMM=   60 NAOKFM=F Big=F
 Integral buffers will be    131072 words long.
 Raffenetti 2 integral format.
 Two-electron integral symmetry is turned off.
 Nuclear repulsion after empirical dispersion term =      536.5974623545 Hartrees.
 One-electron integrals computed using PRISM.
   1 Symmetry operations used in ECPInt.
 ECPInt:  NShTT=    8911 NPrTT=   25186 LenC2=    8643 LenP2D=   19498.
 LDataN:  DoStor=T MaxTD1= 6 Len=  172
 NBasis=   357 RedAO= T EigKep=  3.14D-04  NBF=   357
 NBsUse=   357 1.00D-06 EigRej= -1.00D+00 NBFU=   357
 ExpMin= 7.01D-02 ExpMax= 4.48D+04 ExpMxC= 1.53D+03 IAcc=3 IRadAn=         5 AccDes= 0.00D+00
 Harris functional with IExCor= 4639 and IRadAn=       5 diagonalized for initial guess.
 HarFok:  IExCor= 4639 AccDes= 0.00D+00 IRadAn=         5 IDoV= 1 UseB2=F ITyADJ=14
 ICtDFT=  3500011 ScaDFX=  1.000000  1.000000  1.000000  1.000000
 FoFCou: FMM=F IPFlag=           0 FMFlag=      100000 FMFlg1=           0
         NFxFlg=           0 DoJE=T BraDBF=F KetDBF=T FulRan=T
         wScrn=  0.000000 ICntrl=       500 IOpCl=  0 I1Cent=   200000004 NGrid=           0
         NMat0=    1 NMatS0=      1 NMatT0=    0 NMatD0=    1 NMtDS0=    0 NMtDT0=    0
 Symmetry not used in FoFCou.
 Requested convergence on RMS density matrix=1.00D-08 within 128 cycles.
 Requested convergence on MAX density matrix=1.00D-06.
 Requested convergence on             energy=1.00D-06.
 No special actions if energy rises.
 Integral accuracy reduced to 1.0D-05 until final iterations.
 Initial convergence to 1.0D-05 achieved.  Increase integral accuracy.
 SCF Done:  E(RwB97XD) =  -746.315366226     A.U. after   14 cycles
            NFock= 14  Conv=0.77D-08     -V/T= 2.0033
 DoSCS=F DFT=T ScalE2(SS,OS)=  1.000000  1.000000
 Range of M.O.s used for correlation:     1   357
 NBasis=   357 NAE=    37 NBE=    37 NFC=     0 NFV=     0
 NROrb=    357 NOA=    37 NOB=    37 NVA=   320 NVB=   320

 **** Warning!!: The largest alpha MO coefficient is  0.13320350D+02

   1 Symmetry operations used in ECPInt.
 ECPInt:  NShTT=    8911 NPrTT=   25186 LenC2=    8643 LenP2D=   19498.
 LDataN:  DoStor=T MaxTD1= 7 Len=  274
 Symmetrizing basis deriv contribution to polar:
 IMax=3 JMax=2 DiffMx= 0.00D+00
 G2DrvN: will do    16 centers at a time, making    1 passes.
 Calling FoFCou, ICntrl=  3107 FMM=F I1Cent=   0 AccDes= 0.00D+00.
 End of G2Drv F.D. properties file   721 does not exist.
 End of G2Drv F.D. properties file   722 does not exist.
 End of G2Drv F.D. properties file   788 does not exist.
          IDoAtm=111111111111111
          Differentiating once with respect to nuclear coordinates.
 CalDSu exits because no D1Ps are significant.
          There are    48 degrees of freedom in the 1st order CPHF.  IDoFFX=6 NUNeed=     0.
     42 vectors produced by pass  0 Test12= 2.47D-14 2.08D-09 XBig12= 9.00D-02 4.27D-02.
 AX will form    42 AO Fock derivatives at one time.
     42 vectors produced by pass  1 Test12= 2.47D-14 2.08D-09 XBig12= 3.11D-02 2.74D-02.
     42 vectors produced by pass  2 Test12= 2.47D-14 2.08D-09 XBig12= 9.59D-04 3.97D-03.
     42 vectors produced by pass  3 Test12= 2.47D-14 2.08D-09 XBig12= 1.37D-05 5.31D-04.
     42 vectors produced by pass  4 Test12= 2.47D-14 2.08D-09 XBig12= 1.51D-07 5.05D-05.
     42 vectors produced by pass  5 Test12= 2.47D-14 2.08D-09 XBig12= 1.48D-09 4.27D-06.
     42 vectors produced by pass  6 Test12= 2.47D-14 2.08D-09 XBig12= 1.04D-11 4.01D-07.
     17 vectors produced by pass  7 Test12= 2.47D-14 2.08D-09 XBig12= 6.88D-14 2.91D-08.
      2 vectors produced by pass  8 Test12= 2.47D-14 2.08D-09 XBig12= 5.79D-16 2.27D-09.
 InvSVY:  IOpt=1 It=  1 EMax= 1.44D-15
 Solved reduced A of dimension   313 with    42 vectors.
 End of Minotr F.D. properties file   721 does not exist.
 End of Minotr F.D. properties file   722 does not exist.
 End of Minotr F.D. properties file   788 does not exist.

 **********************************************************************

            Population analysis using the SCF Density.

 **********************************************************************

 Alpha  occ. eigenvalues --  -66.11875 -19.07330 -19.07226 -19.06842 -19.01671
 Alpha  occ. eigenvalues --  -18.99894 -10.18733 -10.18634  -5.23351  -3.58047
 Alpha  occ. eigenvalues --   -3.57857  -3.57629  -0.98194  -0.92976  -0.91813
 Alpha  occ. eigenvalues --   -0.88152  -0.81947  -0.67517  -0.55611  -0.46045
 Alpha  occ. eigenvalues --   -0.43899  -0.42524  -0.40958  -0.39230  -0.35857
 Alpha  occ. eigenvalues --   -0.34799  -0.29088  -0.28728  -0.27783  -0.25682
 Alpha  occ. eigenvalues --   -0.24343  -0.23437  -0.21886  -0.19833  -0.18526
 Alpha  occ. eigenvalues --   -0.17548  -0.15074
 Alpha virt. eigenvalues --    0.24445   0.26070   0.28008   0.29169   0.30950
 Alpha virt. eigenvalues --    0.31591   0.33721   0.36038   0.36655   0.38889
 Alpha virt. eigenvalues --    0.40226   0.41344   0.43785   0.44139   0.45637
 Alpha virt. eigenvalues --    0.46079   0.48010   0.51094   0.52544   0.54121
 Alpha virt. eigenvalues --    0.54965   0.56888   0.58269   0.59897   0.60383
 Alpha virt. eigenvalues --    0.60815   0.62448   0.63483   0.63743   0.64561
 Alpha virt. eigenvalues --    0.65586   0.67203   0.68747   0.69091   0.69790
 Alpha virt. eigenvalues --    0.71404   0.72709   0.75528   0.75863   0.76980
 Alpha virt. eigenvalues --    0.79937   0.81097   0.81888   0.83059   0.83854
 Alpha virt. eigenvalues --    0.87475   0.88176   0.90977   0.93038   0.93261
 Alpha virt. eigenvalues --    0.95920   0.97356   0.98476   1.00076   1.00682
 Alpha virt. eigenvalues --    1.01953   1.03025   1.05023   1.06282   1.07531
 Alpha virt. eigenvalues --    1.10269   1.12111   1.14258   1.16080   1.17739
 Alpha virt. eigenvalues --    1.20793   1.21201   1.22647   1.25825   1.26021
 Alpha virt. eigenvalues --    1.26642   1.28324   1.31320   1.33011   1.33328
 Alpha virt. eigenvalues --    1.36635   1.37951   1.39436   1.40211   1.41439
 Alpha virt. eigenvalues --    1.42920   1.43806   1.46471   1.47876   1.48657
 Alpha virt. eigenvalues --    1.52417   1.53836   1.56252   1.58138   1.58997
 Alpha virt. eigenvalues --    1.60908   1.62527   1.63434   1.66944   1.69965
 Alpha virt. eigenvalues --    1.72885   1.74670   1.76833   1.78292   1.78775
 Alpha virt. eigenvalues --    1.84613   1.85130   1.86937   1.93268   1.97171
 Alpha virt. eigenvalues --    1.99856   2.01561   2.02715   2.07112   2.09470
 Alpha virt. eigenvalues --    2.11237   2.11779   2.16097   2.17160   2.19667
 Alpha virt. eigenvalues --    2.21660   2.22499   2.24618   2.26931   2.30087
 Alpha virt. eigenvalues --    2.30270   2.33729   2.35797   2.37698   2.39746
 Alpha virt. eigenvalues --    2.42419   2.45950   2.47951   2.49602   2.52323
 Alpha virt. eigenvalues --    2.55405   2.56578   2.61551   2.63415   2.63608
 Alpha virt. eigenvalues --    2.65728   2.73681   2.78673   2.80996   2.83024
 Alpha virt. eigenvalues --    2.84583   2.86780   2.96019   2.97766   2.99659
 Alpha virt. eigenvalues --    3.01338   3.03363   3.05327   3.07433   3.08911
 Alpha virt. eigenvalues --    3.13859   3.17711   3.18757   3.19196   3.21001
 Alpha virt. eigenvalues --    3.21983   3.26130   3.28084   3.29317   3.32612
 Alpha virt. eigenvalues --    3.34546   3.35264   3.37293   3.39804   3.41536
 Alpha virt. eigenvalues --    3.42839   3.43972   3.46323   3.49492   3.52937
 Alpha virt. eigenvalues --    3.54098   3.55114   3.57924   3.60570   3.62468
 Alpha virt. eigenvalues --    3.63253   3.63955   3.65724   3.67379   3.69485
 Alpha virt. eigenvalues --    3.73172   3.75445   3.77680   3.79783   3.82083
 Alpha virt. eigenvalues --    3.84788   3.86119   3.87231   3.90928   3.92651
 Alpha virt. eigenvalues --    3.94230   3.95654   3.97697   4.02522   4.03364
 Alpha virt. eigenvalues --    4.05386   4.07599   4.09245   4.13319   4.16671
 Alpha virt. eigenvalues --    4.17823   4.20424   4.21051   4.24849   4.25866
 Alpha virt. eigenvalues --    4.28575   4.31029   4.32873   4.34969   4.36445
 Alpha virt. eigenvalues --    4.38023   4.40581   4.42702   4.45204   4.47380
 Alpha virt. eigenvalues --    4.48562   4.52724   4.55752   4.59704   4.61949
 Alpha virt. eigenvalues --    4.72659   4.75430   4.78658   4.80301   4.84124
 Alpha virt. eigenvalues --    4.86817   4.89044   4.94261   4.95405   4.98484
 Alpha virt. eigenvalues --    5.00761   5.04975   5.08755   5.09699   5.12921
 Alpha virt. eigenvalues --    5.17801   5.18607   5.21106   5.22054   5.25551
 Alpha virt. eigenvalues --    5.33519   5.34061   5.37005   5.37505   5.47374
 Alpha virt. eigenvalues --    5.49330   5.50977   5.54333   5.54632   5.56298
 Alpha virt. eigenvalues --    5.63290   5.65898   5.68006   5.69318   5.70120
 Alpha virt. eigenvalues --    5.71778   5.74742   5.76593   5.78007   5.78944
 Alpha virt. eigenvalues --    5.83818   5.86001   5.86872   5.91688   5.94008
 Alpha virt. eigenvalues --    5.99301   6.05354   6.16093   6.17815   6.21303
 Alpha virt. eigenvalues --    6.26757   6.30323   6.35163   6.36542   6.39367
 Alpha virt. eigenvalues --    6.46107   6.70449   6.74095   6.79310   6.81574
 Alpha virt. eigenvalues --    6.84672   6.86305   6.87552   6.89149   6.90374
 Alpha virt. eigenvalues --    6.91524   6.92085   6.94156   6.96169   6.97967
 Alpha virt. eigenvalues --    6.98652   7.02723   7.03301   7.07607   7.11686
 Alpha virt. eigenvalues --    7.14905   7.17873   7.22939   7.24627   7.31392
 Alpha virt. eigenvalues --    7.37523   7.38743   7.43158   7.52763   7.54859
 Alpha virt. eigenvalues --    7.56998   7.63750   7.71703   7.77262   7.92830
 Alpha virt. eigenvalues --    7.93679   8.04000  12.67396  23.49471  23.62960
 Alpha virt. eigenvalues --   44.02954  44.10482  44.16659  44.35026  44.41974
          Condensed to atoms (all electrons):
               1          2          3          4          5          6
     1  Si  11.516946   0.405184  -0.027858   0.159253  -0.016979   0.370404
     2  O    0.405184   7.845382   0.314661  -0.028055   0.004616  -0.023149
     3  H   -0.027858   0.314661   0.552848   0.004085  -0.000729   0.000080
     4  O    0.159253  -0.028055   0.004085   8.171908   0.292082  -0.022417
     5  H   -0.016979   0.004616  -0.000729   0.292082   0.585840   0.001120
     6  O    0.370404  -0.023149   0.000080  -0.022417   0.001120   7.939198
     7  O    0.564026  -0.027273  -0.001007  -0.184947   0.013785  -0.024471
     8  H   -0.050868   0.001864  -0.000976   0.196513  -0.016217   0.003392
     9  O    0.368804  -0.045663   0.011701   0.000916   0.000036  -0.024128
    10  C   -0.032943  -0.001942   0.001308   0.000602  -0.000114  -0.073946
    11  H   -0.000736   0.000021  -0.000587   0.000005  -0.000001   0.005135
    12  H   -0.003539  -0.000518   0.000463   0.000116  -0.000000   0.005941
    13  C   -0.054056  -0.002150  -0.001889  -0.000612  -0.000068   0.334760
    14  H   -0.008809   0.001453   0.001265   0.000171   0.000011  -0.056817
    15  H    0.003335  -0.000306  -0.000046  -0.000033  -0.000008  -0.043249
               7          8          9         10         11         12
     1  Si   0.564026  -0.050868   0.368804  -0.032943  -0.000736  -0.003539
     2  O   -0.027273   0.001864  -0.045663  -0.001942   0.000021  -0.000518
     3  H   -0.001007  -0.000976   0.011701   0.001308  -0.000587   0.000463
     4  O   -0.184947   0.196513   0.000916   0.000602   0.000005   0.000116
     5  H    0.013785  -0.016217   0.000036  -0.000114  -0.000001  -0.000000
     6  O   -0.024471   0.003392  -0.024128  -0.073946   0.005135   0.005941
     7  O    8.137459   0.194671  -0.025204   0.001487  -0.000345   0.001424
     8  H    0.194671   0.403473   0.000575  -0.000932  -0.000018  -0.000034
     9  O   -0.025204   0.000575   8.074251   0.329353  -0.046068  -0.047449
    10  C    0.001487  -0.000932   0.329353   4.701359   0.365757   0.413312
    11  H   -0.000345  -0.000018  -0.046068   0.365757   0.759580  -0.077221
    12  H    0.001424  -0.000034  -0.047449   0.413312  -0.077221   0.740746
    13  C   -0.006078   0.000970  -0.092497   0.299093  -0.013068  -0.062914
    14  H   -0.000263  -0.000072   0.010897  -0.057075  -0.017927   0.016878
    15  H   -0.000017   0.000060   0.007031  -0.016654   0.008902  -0.012930
              13         14         15
     1  Si  -0.054056  -0.008809   0.003335
     2  O   -0.002150   0.001453  -0.000306
     3  H   -0.001889   0.001265  -0.000046
     4  O   -0.000612   0.000171  -0.000033
     5  H   -0.000068   0.000011  -0.000008
     6  O    0.334760  -0.056817  -0.043249
     7  O   -0.006078  -0.000263  -0.000017
     8  H    0.000970  -0.000072   0.000060
     9  O   -0.092497   0.010897   0.007031
    10  C    0.299093  -0.057075  -0.016654
    11  H   -0.013068  -0.017927   0.008902
    12  H   -0.062914   0.016878  -0.012930
    13  C    4.741075   0.406669   0.370565
    14  H    0.406669   0.761164  -0.073754
    15  H    0.370565  -0.073754   0.734521
 Mulliken charges:
               1
     1  Si   0.807835
     2  O   -0.444125
     3  H    0.146680
     4  O   -0.589588
     5  H    0.136627
     6  O   -0.391854
     7  O   -0.643246
     8  H    0.267599
     9  O   -0.522555
    10  C    0.071334
    11  H    0.016571
    12  H    0.025728
    13  C    0.080199
    14  H    0.016210
    15  H    0.022582
 Sum of Mulliken charges =  -1.00000
 Mulliken charges with hydrogens summed into heavy atoms:
               1
     1  Si   0.807835
     2  O   -0.297445
     4  O   -0.452960
     6  O   -0.391854
     7  O   -0.375647
     9  O   -0.522555
    10  C    0.113633
    13  C    0.118991
 APT charges:
               1
     1  Si   0.367460
     2  O   -0.598711
     3  H    0.422710
     4  O   -0.732400
     5  H    0.363835
     6  O   -0.374130
     7  O   -0.503048
     8  H    0.226348
     9  O   -0.456946
    10  C   -0.627934
    11  H    0.440961
    12  H    0.313999
    13  C   -0.573066
    14  H    0.319252
    15  H    0.411670
 Sum of APT charges =  -1.00000
 APT charges with hydrogens summed into heavy atoms:
               1
     1  Si   0.367460
     2  O   -0.176001
     4  O   -0.368565
     6  O   -0.374130
     7  O   -0.276700
     9  O   -0.456946
    10  C    0.127027
    13  C    0.157855
 Electronic spatial extent (au):  <R**2>=           1052.8554
 Charge=             -1.0000 electrons
 Dipole moment (field-independent basis, Debye):
    X=             -4.9619    Y=             -0.8468    Z=             -2.4552  Tot=              5.6005
 Quadrupole moment (field-independent basis, Debye-Ang):
   XX=            -65.4085   YY=            -64.9587   ZZ=            -62.5871
   XY=             -4.7383   XZ=             -2.4873   YZ=              3.7796
 Traceless Quadrupole moment (field-independent basis, Debye-Ang):
   XX=             -1.0904   YY=             -0.6406   ZZ=              1.7310
   XY=             -4.7383   XZ=             -2.4873   YZ=              3.7796
 Octapole moment (field-independent basis, Debye-Ang**2):
  XXX=             -2.4313  YYY=            -10.1164  ZZZ=            -11.1374  XYY=             -4.9388
  XXY=             -7.1605  XXZ=             -6.4735  XZZ=             -6.7548  YZZ=              1.7651
  YYZ=             -4.8620  XYZ=             -0.8785
 Hexadecapole moment (field-independent basis, Debye-Ang**3):
 XXXX=           -833.0050 YYYY=           -313.9404 ZZZZ=           -257.4296 XXXY=            -25.8602
 XXXZ=            -18.4559 YYYX=            -12.1807 YYYZ=             15.7401 ZZZX=             -6.3534
 ZZZY=             14.1449 XXYY=           -216.7800 XXZZ=           -183.2093 YYZZ=            -87.0991
 XXYZ=              0.6082 YYXZ=             -0.5048 ZZXY=             11.0191
 N-N= 5.365974623545D+02 E-N=-2.854648053994D+03  KE= 7.438440447406D+02
  Exact polarizability:       0.000       0.000       0.000       0.000       0.000       0.000
 Approx polarizability:      75.980       0.972      68.522      -1.311       0.391      69.144
   1 Symmetry operations used in ECPInt.
 ECPInt:  NShTT=    8911 NPrTT=   25186 LenC2=    8643 LenP2D=   19498.
 LDataN:  DoStor=T MaxTD1= 8 Len=  415
 Calling FoFJK, ICntrl=    100127 FMM=F ISym2X=0 I1Cent= 0 IOpClX= 0 NMat=1 NMatS=1 NMatT=0.
 -------------------------------------------------------------------
 Center     Atomic                   Forces (Hartrees/Bohr)
 Number     Number              X              Y              Z
 -------------------------------------------------------------------
      1       14          -0.000001577    0.000000758    0.000003191
      2        8           0.000003749    0.000002628   -0.000002276
      3        1           0.000003587    0.000002884   -0.000001557
      4        8          -0.000000938    0.000007397    0.000001292
      5        1           0.000000952    0.000007577    0.000001647
      6        8          -0.000001510    0.000000785    0.000000411
      7        8          -0.000000734    0.000002144   -0.000001215
      8        1          -0.000001268    0.000002836    0.000003286
      9        8           0.000003074   -0.000002260   -0.000001690
     10        6           0.000000107   -0.000004949   -0.000001817
     11        1           0.000002107   -0.000005603   -0.000002009
     12        1          -0.000000192   -0.000005598   -0.000000755
     13        6          -0.000001886   -0.000002006    0.000000354
     14        1          -0.000001392   -0.000002063    0.000000475
     15        1          -0.000004080   -0.000004529    0.000000663
 -------------------------------------------------------------------
 Cartesian Forces:  Max     0.000007577 RMS     0.000002907
 IRC-IRC-IRC-IRC-IRC-IRC-IRC-IRC-IRC-IRC-IRC-IRC-IRC-IRC-IRC-IRC-IRC-IRC
          ******** Start new reaction path calculation ********
 Supplied step size of   0.1000 bohr.
    Integration on MW PES will use step size of   0.1059 sqrt(amu)*bohr.
 Point Number:   0          Path Number:   1
 Calculating another point on the path.
 IRC-IRC-IRC-IRC-IRC-IRC-IRC-IRC-IRC-IRC-IRC-IRC-IRC-IRC-IRC-IRC-IRC-IRC
                          Input orientation:                          
 ---------------------------------------------------------------------
 Center     Atomic      Atomic             Coordinates (Angstroms)
 Number     Number       Type             X           Y           Z
 ---------------------------------------------------------------------
      1         14           0        0.341762   -0.229457    0.049406
      2          8           0        0.922805   -0.927675   -1.360496
      3          1           0        0.275095   -1.563674   -1.657375
      4          8           0        2.283082    0.990542   -0.017101
      5          1           0        2.812551    0.473804   -0.623038
      6          8           0       -0.464354    1.233351   -0.192516
      7          8           0        1.147598   -0.473177    1.401464
      8          1           0        2.000988    0.293932    0.879191
      9          8           0       -1.139552   -1.117667    0.134438
     10          6           0       -2.206644   -0.252982    0.365042
     11          1           0       -3.139442   -0.672962   -0.031644
     12          1           0       -2.346168   -0.081312    1.443586
     13          6           0       -1.844389    1.064703   -0.328220
     14          1           0       -2.120259    1.014280   -1.393115
     15          1           0       -2.372815    1.916471    0.115420
 ---------------------------------------------------------------------
                    Distance matrix (angstroms):
                    1          2          3          4          5
     1  Si   0.000000
     2  O    1.677183   0.000000
     3  H    2.167414   0.955071   0.000000
     4  O    2.293805   2.708250   3.639578   0.000000
     5  H    2.655477   2.465588   3.414652   0.956303   0.000000
     6  O    1.687648   2.821067   3.242830   2.763717   3.391219
     7  O    1.592743   2.808117   3.362579   2.333264   2.787014
     8  H    1.927567   2.769657   3.586583   1.169693   1.716881
     9  O    1.729288   2.554259   2.326100   4.022677   4.327317
    10  C    2.567985   3.636776   3.459352   4.674400   5.166898
    11  H    3.510277   4.281656   3.885284   5.671968   6.090242
    12  H    3.031608   4.389236   4.322543   4.971160   5.584932
    13  C    2.568405   3.562657   3.628668   4.139844   4.703527
    14  H    3.112763   3.610054   3.528938   4.613392   5.021728
    15  H    3.460967   4.596586   4.718648   4.748924   5.432737
                    6          7          8          9         10
     6  O    0.000000
     7  O    2.837499   0.000000
     8  H    2.847627   1.260754   0.000000
     9  O    2.467808   2.692912   3.522821   0.000000
    10  C    2.357039   3.517612   4.274065   1.392675   0.000000
    11  H    3.288770   4.524646   5.309288   2.055457   1.097204
    12  H    2.818935   3.515925   4.399673   2.060054   1.100997
    13  C    1.396909   3.782706   4.103517   2.339569   1.532362
    14  H    2.057049   4.549845   4.760983   2.800072   2.168993
    15  H    2.050293   4.444956   4.727170   3.275254   2.190080
                   11         12         13         14         15
    11  H    0.000000
    12  H    1.776411   0.000000
    13  C    2.187374   2.168970   0.000000
    14  H    2.395647   3.049300   1.101203   0.000000
    15  H    2.704535   2.399140   1.096157   1.775784   0.000000
 Symmetry turned off by external request.
 Stoichiometry    C2H7O5Si(1-)
 Framework group  C1[X(C2H7O5Si)]
 Deg. of freedom    39
 Full point group                 C1      NOp   1
 Rotational constants (GHZ):           2.9045310           1.4218385           1.3167690
 Standard basis: def2TZVPP (5D, 7F)
   357 basis functions,   545 primitive gaussians,   405 cartesian basis functions
    37 alpha electrons       37 beta electrons
       nuclear repulsion energy       536.6043177815 Hartrees.
 NAtoms=   15 NActive=   15 NUniq=   15 SFac= 1.00D+00 NAtFMM=   60 NAOKFM=F Big=F
 Integral buffers will be    131072 words long.
 Raffenetti 2 integral format.
 Two-electron integral symmetry is turned off.
 Nuclear repulsion after empirical dispersion term =      536.5980070698 Hartrees.
 One-electron integrals computed using PRISM.
   1 Symmetry operations used in ECPInt.
 ECPInt:  NShTT=    8911 NPrTT=   25186 LenC2=    8637 LenP2D=   19491.
 LDataN:  DoStor=T MaxTD1= 6 Len=  172
 NBasis=   357 RedAO= T EigKep=  3.14D-04  NBF=   357
 NBsUse=   357 1.00D-06 EigRej= -1.00D+00 NBFU=   357
 Initial guess from the checkpoint file:  "IRC_PbiL_collapseTo_QbiL_Forward.chk"
 B after Tr=    -0.062515    0.017641   -0.016258
         Rot=    1.000000    0.000101   -0.000107   -0.000055 Ang=   0.02 deg.
 ExpMin= 7.01D-02 ExpMax= 4.48D+04 ExpMxC= 1.53D+03 IAcc=3 IRadAn=         5 AccDes= 0.00D+00
 Harris functional with IExCor= 4639 and IRadAn=       5 diagonalized for initial guess.
 HarFok:  IExCor= 4639 AccDes= 0.00D+00 IRadAn=         5 IDoV= 1 UseB2=F ITyADJ=14
 ICtDFT=  3500011 ScaDFX=  1.000000  1.000000  1.000000  1.000000
 FoFCou: FMM=F IPFlag=           0 FMFlag=      100000 FMFlg1=           0
         NFxFlg=           0 DoJE=T BraDBF=F KetDBF=T FulRan=T
         wScrn=  0.000000 ICntrl=       500 IOpCl=  0 I1Cent=   200000004 NGrid=           0
         NMat0=    1 NMatS0=      1 NMatT0=    0 NMatD0=    1 NMtDS0=    0 NMtDT0=    0
 Symmetry not used in FoFCou.
 Requested convergence on RMS density matrix=1.00D-08 within 128 cycles.
 Requested convergence on MAX density matrix=1.00D-06.
 Requested convergence on             energy=1.00D-06.
 No special actions if energy rises.
 Integral accuracy reduced to 1.0D-05 until final iterations.
 Initial convergence to 1.0D-05 achieved.  Increase integral accuracy.
 SCF Done:  E(RwB97XD) =  -746.315610456     A.U. after   11 cycles
            NFock= 11  Conv=0.74D-08     -V/T= 2.0033
 DoSCS=F DFT=T ScalE2(SS,OS)=  1.000000  1.000000
 Range of M.O.s used for correlation:     1   357
 NBasis=   357 NAE=    37 NBE=    37 NFC=     0 NFV=     0
 NROrb=    357 NOA=    37 NOB=    37 NVA=   320 NVB=   320

 **** Warning!!: The largest alpha MO coefficient is  0.12833479D+02

 Symmetrizing basis deriv contribution to polar:
 IMax=3 JMax=2 DiffMx= 0.00D+00
   1 Symmetry operations used in ECPInt.
 ECPInt:  NShTT=    8911 NPrTT=   25186 LenC2=    8637 LenP2D=   19491.
 LDataN:  DoStor=T MaxTD1= 7 Len=  274
 Calling FoFJK, ICntrl=      2127 FMM=F ISym2X=0 I1Cent= 0 IOpClX= 0 NMat=1 NMatS=1 NMatT=0.
 -------------------------------------------------------------------
 Center     Atomic                   Forces (Hartrees/Bohr)
 Number     Number              X              Y              Z
 -------------------------------------------------------------------
      1       14          -0.002241515   -0.003631702    0.004621759
      2        8           0.000398969    0.000824406   -0.000201457
      3        1           0.000011383    0.000060524    0.000018915
      4        8           0.002606703    0.001320523    0.000335642
      5        1          -0.000030255   -0.000205029    0.000160156
      6        8           0.000342215    0.000099104   -0.000436027
      7        8          -0.002415331   -0.000890075   -0.001268961
      8        1           0.002242874    0.002613573   -0.002348325
      9        8          -0.001002049   -0.000210139   -0.000772602
     10        6          -0.000001077   -0.000053809   -0.000064833
     11        1          -0.000040281    0.000044942    0.000007918
     12        1           0.000030846   -0.000005125    0.000003275
     13        6           0.000099350    0.000027974   -0.000051079
     14        1          -0.000013443   -0.000001901   -0.000005207
     15        1           0.000011612    0.000006734    0.000000826
 -------------------------------------------------------------------
 Cartesian Forces:  Max     0.004621759 RMS     0.001306205
 IRC-IRC-IRC-IRC-IRC-IRC-IRC-IRC-IRC-IRC-IRC-IRC-IRC-IRC-IRC-IRC-IRC-IRC
 Pt  1 Step number   1 out of a maximum of 100
 Modified Bulirsch-Stoer Extrapolation Cycles:
    EPS =    0.000010000000000
      PEZero:  N= 2 I= 1 D=  2.76D-04 Err=  4.93D-04
      PEZero:  N= 3 I= 2 D=  2.76D-04 Err=  3.29D-04
      PEZero:  N= 3 I= 1 D=  5.51D-04 Err=  1.63D-07
 Maximum DWI energy   std dev =  0.000002758 at pt     1
 Maximum DWI gradient std dev =  0.089356691 at pt     1
 CORRECTOR INTEGRATION CONVERGENCE:
   Recorrection delta-x convergence threshold:    0.010000
   Delta-x Convergence Met
 Point Number:   1          Path Number:   1
   CHANGE IN THE REACTION COORDINATE =    0.10577
   NET REACTION COORDINATE UP TO THIS POINT =    0.10577
  # OF POINTS ALONG THE PATH =   1
  # OF STEPS =   1

 Calculating another point on the path.
 IRC-IRC-IRC-IRC-IRC-IRC-IRC-IRC-IRC-IRC-IRC-IRC-IRC-IRC-IRC-IRC-IRC-IRC
                          Input orientation:                          
 ---------------------------------------------------------------------
 Center     Atomic      Atomic             Coordinates (Angstroms)
 Number     Number       Type             X           Y           Z
 ---------------------------------------------------------------------
      1         14           0        0.340789   -0.231095    0.051523
      2          8           0        0.923122   -0.927004   -1.360639
      3          1           0        0.275251   -1.562874   -1.657167
      4          8           0        2.285226    0.991656   -0.016811
      5          1           0        2.812432    0.470968   -0.621332
      6          8           0       -0.464076    1.233416   -0.192858
      7          8           0        1.145750   -0.473894    1.400570
      8          1           0        2.025705    0.326172    0.846928
      9          8           0       -1.140357   -1.117845    0.133812
     10          6           0       -2.206658   -0.253033    0.364968
     11          1           0       -3.139953   -0.672366   -0.031538
     12          1           0       -2.345787   -0.081370    1.443623
     13          6           0       -1.844280    1.064734   -0.328274
     14          1           0       -2.120415    1.014267   -1.393169
     15          1           0       -2.372651    1.916564    0.115430
 ---------------------------------------------------------------------
                    Distance matrix (angstroms):
                    1          2          3          4          5
     1  Si   0.000000
     2  O    1.678571   0.000000
     3  H    2.167383   0.954985   0.000000
     4  O    2.297961   2.709696   3.640932   0.000000
     5  H    2.656058   2.463816   3.412734   0.956298   0.000000
     6  O    1.688882   2.820540   3.241919   2.765520   3.391226
     7  O    1.589605   2.806982   3.360565   2.335639   2.785440
     8  H    1.944777   2.767578   3.592085   1.120833   1.672032
     9  O    1.728262   2.554946   2.325855   4.025829   4.326558
    10  C    2.566751   3.636960   3.458986   4.676754   5.166064
    11  H    3.509585   4.282515   3.885781   5.674659   6.089824
    12  H    3.029530   4.389163   4.321989   4.972980   5.583577
    13  C    2.568647   3.562487   3.628042   4.141881   4.703553
    14  H    3.113773   3.610085   3.528536   4.615685   5.022338
    15  H    3.461110   4.596388   4.718047   4.750660   5.433015
                    6          7          8          9         10
     6  O    0.000000
     7  O    2.836452   0.000000
     8  H    2.846621   1.311848   0.000000
     9  O    2.468298   2.691771   3.552135   0.000000
    10  C    2.357391   3.515663   4.298913   1.392239   0.000000
    11  H    3.289126   4.523005   5.334117   2.055280   1.097314
    12  H    2.819143   3.513795   4.430810   2.059841   1.101055
    13  C    1.397053   3.781079   4.111370   2.339376   1.532453
    14  H    2.057239   4.548344   4.762543   2.799658   2.168993
    15  H    2.050462   4.443537   4.733917   3.275137   2.190200
                   11         12         13         14         15
    11  H    0.000000
    12  H    1.776535   0.000000
    13  C    2.187313   2.169028   0.000000
    14  H    2.395460   3.049361   1.101271   0.000000
    15  H    2.704240   2.399283   1.096204   1.775847   0.000000
 Symmetry turned off by external request.
 Stoichiometry    C2H7O5Si(1-)
 Framework group  C1[X(C2H7O5Si)]
 Deg. of freedom    39
 Full point group                 C1      NOp   1
 Rotational constants (GHZ):           2.9048731           1.4213623           1.3158301
 Standard basis: def2TZVPP (5D, 7F)
   357 basis functions,   545 primitive gaussians,   405 cartesian basis functions
    37 alpha electrons       37 beta electrons
       nuclear repulsion energy       536.5708091529 Hartrees.
 NAtoms=   15 NActive=   15 NUniq=   15 SFac= 1.00D+00 NAtFMM=   60 NAOKFM=F Big=F
 Integral buffers will be    131072 words long.
 Raffenetti 2 integral format.
 Two-electron integral symmetry is turned off.
 Nuclear repulsion after empirical dispersion term =      536.5645078847 Hartrees.
 One-electron integrals computed using PRISM.
   1 Symmetry operations used in ECPInt.
 ECPInt:  NShTT=    8911 NPrTT=   25186 LenC2=    8637 LenP2D=   19488.
 LDataN:  DoStor=T MaxTD1= 6 Len=  172
 NBasis=   357 RedAO= T EigKep=  3.14D-04  NBF=   357
 NBsUse=   357 1.00D-06 EigRej= -1.00D+00 NBFU=   357
 Initial guess from the checkpoint file:  "IRC_PbiL_collapseTo_QbiL_Forward.chk"
 B after Tr=     0.000324    0.000409   -0.000401
         Rot=    1.000000    0.000099   -0.000104   -0.000059 Ang=   0.02 deg.
 ExpMin= 7.01D-02 ExpMax= 4.48D+04 ExpMxC= 1.53D+03 IAcc=3 IRadAn=         5 AccDes= 0.00D+00
 Harris functional with IExCor= 4639 and IRadAn=       5 diagonalized for initial guess.
 HarFok:  IExCor= 4639 AccDes= 0.00D+00 IRadAn=         5 IDoV= 1 UseB2=F ITyADJ=14
 ICtDFT=  3500011 ScaDFX=  1.000000  1.000000  1.000000  1.000000
 FoFCou: FMM=F IPFlag=           0 FMFlag=      100000 FMFlg1=           0
         NFxFlg=           0 DoJE=T BraDBF=F KetDBF=T FulRan=T
         wScrn=  0.000000 ICntrl=       500 IOpCl=  0 I1Cent=   200000004 NGrid=           0
         NMat0=    1 NMatS0=      1 NMatT0=    0 NMatD0=    1 NMtDS0=    0 NMtDT0=    0
 Symmetry not used in FoFCou.
 Requested convergence on RMS density matrix=1.00D-08 within 128 cycles.
 Requested convergence on MAX density matrix=1.00D-06.
 Requested convergence on             energy=1.00D-06.
 No special actions if energy rises.
 Integral accuracy reduced to 1.0D-05 until final iterations.
 Initial convergence to 1.0D-05 achieved.  Increase integral accuracy.
 SCF Done:  E(RwB97XD) =  -746.316236351     A.U. after   11 cycles
            NFock= 11  Conv=0.80D-08     -V/T= 2.0033
 DoSCS=F DFT=T ScalE2(SS,OS)=  1.000000  1.000000
 Range of M.O.s used for correlation:     1   357
 NBasis=   357 NAE=    37 NBE=    37 NFC=     0 NFV=     0
 NROrb=    357 NOA=    37 NOB=    37 NVA=   320 NVB=   320

 **** Warning!!: The largest alpha MO coefficient is  0.12305528D+02

 Symmetrizing basis deriv contribution to polar:
 IMax=3 JMax=2 DiffMx= 0.00D+00
   1 Symmetry operations used in ECPInt.
 ECPInt:  NShTT=    8911 NPrTT=   25186 LenC2=    8637 LenP2D=   19488.
 LDataN:  DoStor=T MaxTD1= 7 Len=  274
 Calling FoFJK, ICntrl=      2127 FMM=F ISym2X=0 I1Cent= 0 IOpClX= 0 NMat=1 NMatS=1 NMatT=0.
 -------------------------------------------------------------------
 Center     Atomic                   Forces (Hartrees/Bohr)
 Number     Number              X              Y              Z
 -------------------------------------------------------------------
      1       14          -0.004132141   -0.006891105    0.008841246
      2        8           0.000761041    0.001606940   -0.000350763
      3        1           0.000014741    0.000108400    0.000025563
      4        8           0.005695246    0.003954351   -0.001293082
      5        1          -0.000062016   -0.000343518    0.000199743
      6        8           0.000652522    0.000154237   -0.000827796
      7        8          -0.004928405   -0.002129320   -0.001964354
      8        1           0.003791967    0.003891097   -0.002915464
      9        8          -0.001951153   -0.000437582   -0.001506096
     10        6          -0.000026488   -0.000088283   -0.000129392
     11        1          -0.000079744    0.000097731    0.000020479
     12        1           0.000058559   -0.000000149    0.000008038
     13        6           0.000199846    0.000056386   -0.000099232
     14        1          -0.000022423    0.000000095   -0.000009399
     15        1           0.000028448    0.000020719    0.000000509
 -------------------------------------------------------------------
 Cartesian Forces:  Max     0.008841246 RMS     0.002468180
 IRC-IRC-IRC-IRC-IRC-IRC-IRC-IRC-IRC-IRC-IRC-IRC-IRC-IRC-IRC-IRC-IRC-IRC
 Pt  2 Step number   1 out of a maximum of 100
 Modified Bulirsch-Stoer Extrapolation Cycles:
    EPS =    0.000010000000000
      PEZero:  N= 2 I= 1 D=  5.51D-04 Err=  4.93D-05
      PEZero:  N= 3 I= 2 D=  5.51D-04 Err=  3.29D-05
      PEZero:  N= 3 I= 1 D=  1.10D-03 Err=  1.88D-07
 Maximum DWI energy   std dev =  0.000008337 at pt    30
 Maximum DWI gradient std dev =  0.088613924 at pt    27
 CORRECTOR INTEGRATION CONVERGENCE:
   Recorrection delta-x convergence threshold:    0.010000
   Delta-x Convergence Met
 Point Number:   2          Path Number:   1
   CHANGE IN THE REACTION COORDINATE =    0.10560
   NET REACTION COORDINATE UP TO THIS POINT =    0.21138
  # OF POINTS ALONG THE PATH =   2
  # OF STEPS =   1

 Calculating another point on the path.
 IRC-IRC-IRC-IRC-IRC-IRC-IRC-IRC-IRC-IRC-IRC-IRC-IRC-IRC-IRC-IRC-IRC-IRC
                          Input orientation:                          
 ---------------------------------------------------------------------
 Center     Atomic      Atomic             Coordinates (Angstroms)
 Number     Number       Type             X           Y           Z
 ---------------------------------------------------------------------
      1         14           0        0.339526   -0.233211    0.054219
      2          8           0        0.923519   -0.926100   -1.360768
      3          1           0        0.275490   -1.561843   -1.657056
      4          8           0        2.288541    0.994066   -0.017700
      5          1           0        2.812332    0.467775   -0.620322
      6          8           0       -0.463711    1.233442   -0.193288
      7          8           0        1.143222   -0.475090    1.399747
      8          1           0        2.052821    0.356968    0.821329
      9          8           0       -1.141442   -1.118128    0.132977
     10          6           0       -2.206723   -0.253059    0.364870
     11          1           0       -3.140660   -0.671505   -0.031335
     12          1           0       -2.345270   -0.081382    1.443664
     13          6           0       -1.844118    1.064785   -0.328351
     14          1           0       -2.120590    1.014279   -1.393233
     15          1           0       -2.372392    1.916717    0.115429
 ---------------------------------------------------------------------
                    Distance matrix (angstroms):
                    1          2          3          4          5
     1  Si   0.000000
     2  O    1.680277   0.000000
     3  H    2.167447   0.954934   0.000000
     4  O    2.304352   2.711854   3.643149   0.000000
     5  H    2.657283   2.461455   3.410239   0.956291   0.000000
     6  O    1.690421   2.819759   3.240780   2.768216   3.391321
     7  O    1.585837   2.805730   3.358279   2.340797   2.784888
     8  H    1.967777   2.771847   3.603212   1.079550   1.633246
     9  O    1.727006   2.555819   2.325682   4.030986   4.326069
    10  C    2.565206   3.637200   3.458682   4.680713   5.165377
    11  H    3.508720   4.283662   3.886612   5.678955   6.089579
    12  H    3.026837   4.389006   4.321414   4.976381   5.582335
    13  C    2.568941   3.562208   3.627309   4.144922   4.703636
    14  H    3.115048   3.610086   3.528060   4.618759   5.022925
    15  H    3.461277   4.596063   4.717347   4.753241   5.433426
                    6          7          8          9         10
     6  O    0.000000
     7  O    2.835327   0.000000
     8  H    2.851418   1.361711   0.000000
     9  O    2.468937   2.690333   3.585115   0.000000
    10  C    2.357820   3.513175   4.327147   1.391740   0.000000
    11  H    3.289545   4.520865   5.362558   2.055077   1.097412
    12  H    2.819333   3.510913   4.463480   2.059599   1.101121
    13  C    1.397216   3.779119   4.124185   2.339163   1.532564
    14  H    2.057462   4.546584   4.770084   2.799144   2.168984
    15  H    2.050666   4.441819   4.744852   3.275031   2.190341
                   11         12         13         14         15
    11  H    0.000000
    12  H    1.776658   0.000000
    13  C    2.187223   2.169076   0.000000
    14  H    2.395241   3.049417   1.101345   0.000000
    15  H    2.703825   2.399446   1.096267   1.775911   0.000000
 Symmetry turned off by external request.
 Stoichiometry    C2H7O5Si(1-)
 Framework group  C1[X(C2H7O5Si)]
 Deg. of freedom    39
 Full point group                 C1      NOp   1
 Rotational constants (GHZ):           2.9040929           1.4204980           1.3144392
 Standard basis: def2TZVPP (5D, 7F)
   357 basis functions,   545 primitive gaussians,   405 cartesian basis functions
    37 alpha electrons       37 beta electrons
       nuclear repulsion energy       536.4697709019 Hartrees.
 NAtoms=   15 NActive=   15 NUniq=   15 SFac= 1.00D+00 NAtFMM=   60 NAOKFM=F Big=F
 Integral buffers will be    131072 words long.
 Raffenetti 2 integral format.
 Two-electron integral symmetry is turned off.
 Nuclear repulsion after empirical dispersion term =      536.4634775731 Hartrees.
 One-electron integrals computed using PRISM.
   1 Symmetry operations used in ECPInt.
 ECPInt:  NShTT=    8911 NPrTT=   25186 LenC2=    8638 LenP2D=   19488.
 LDataN:  DoStor=T MaxTD1= 6 Len=  172
 NBasis=   357 RedAO= T EigKep=  3.14D-04  NBF=   357
 NBsUse=   357 1.00D-06 EigRej= -1.00D+00 NBFU=   357
 Initial guess from the checkpoint file:  "IRC_PbiL_collapseTo_QbiL_Forward.chk"
 B after Tr=     0.000361    0.000400   -0.000331
         Rot=    1.000000    0.000093   -0.000095   -0.000053 Ang=   0.02 deg.
 ExpMin= 7.01D-02 ExpMax= 4.48D+04 ExpMxC= 1.53D+03 IAcc=3 IRadAn=         5 AccDes= 0.00D+00
 Harris functional with IExCor= 4639 and IRadAn=       5 diagonalized for initial guess.
 HarFok:  IExCor= 4639 AccDes= 0.00D+00 IRadAn=         5 IDoV= 1 UseB2=F ITyADJ=14
 ICtDFT=  3500011 ScaDFX=  1.000000  1.000000  1.000000  1.000000
 FoFCou: FMM=F IPFlag=           0 FMFlag=      100000 FMFlg1=           0
         NFxFlg=           0 DoJE=T BraDBF=F KetDBF=T FulRan=T
         wScrn=  0.000000 ICntrl=       500 IOpCl=  0 I1Cent=   200000004 NGrid=           0
         NMat0=    1 NMatS0=      1 NMatT0=    0 NMatD0=    1 NMtDS0=    0 NMtDT0=    0
 Symmetry not used in FoFCou.
 Requested convergence on RMS density matrix=1.00D-08 within 128 cycles.
 Requested convergence on MAX density matrix=1.00D-06.
 Requested convergence on             energy=1.00D-06.
 No special actions if energy rises.
 Integral accuracy reduced to 1.0D-05 until final iterations.
 Initial convergence to 1.0D-05 achieved.  Increase integral accuracy.
 SCF Done:  E(RwB97XD) =  -746.316996812     A.U. after   11 cycles
            NFock= 11  Conv=0.82D-08     -V/T= 2.0032
 DoSCS=F DFT=T ScalE2(SS,OS)=  1.000000  1.000000
 Range of M.O.s used for correlation:     1   357
 NBasis=   357 NAE=    37 NBE=    37 NFC=     0 NFV=     0
 NROrb=    357 NOA=    37 NOB=    37 NVA=   320 NVB=   320

 **** Warning!!: The largest alpha MO coefficient is  0.11616331D+02

 Symmetrizing basis deriv contribution to polar:
 IMax=3 JMax=2 DiffMx= 0.00D+00
   1 Symmetry operations used in ECPInt.
 ECPInt:  NShTT=    8911 NPrTT=   25186 LenC2=    8638 LenP2D=   19488.
 LDataN:  DoStor=T MaxTD1= 7 Len=  274
 Calling FoFJK, ICntrl=      2127 FMM=F ISym2X=0 I1Cent= 0 IOpClX= 0 NMat=1 NMatS=1 NMatT=0.
 -------------------------------------------------------------------
 Center     Atomic                   Forces (Hartrees/Bohr)
 Number     Number              X              Y              Z
 -------------------------------------------------------------------
      1       14          -0.005565508   -0.009179571    0.011564955
      2        8           0.000975163    0.002277642   -0.000276556
      3        1           0.000036375    0.000151050    0.000000462
      4        8           0.009022178    0.007587568   -0.004674065
      5        1          -0.000074610   -0.000355257    0.000075364
      6        8           0.000905345    0.000020476   -0.001068919
      7        8          -0.006491564   -0.003191655   -0.001881154
      8        1           0.003787964    0.003195415   -0.001357225
      9        8          -0.002751929   -0.000744636   -0.002093923
     10        6          -0.000146267   -0.000021372   -0.000178027
     11        1          -0.000107670    0.000131714    0.000035119
     12        1           0.000079673   -0.000001615    0.000007766
     13        6           0.000320421    0.000106265   -0.000144288
     14        1          -0.000026662    0.000000921   -0.000009827
     15        1           0.000037090    0.000023054    0.000000317
 -------------------------------------------------------------------
 Cartesian Forces:  Max     0.011564955 RMS     0.003376888
 IRC-IRC-IRC-IRC-IRC-IRC-IRC-IRC-IRC-IRC-IRC-IRC-IRC-IRC-IRC-IRC-IRC-IRC
 Pt  3 Step number   1 out of a maximum of 100
 Modified Bulirsch-Stoer Extrapolation Cycles:
    EPS =    0.000010000000000
      PEZero:  N= 2 I= 1 D=  5.51D-04 Err=  8.33D-05
      PEZero:  N= 3 I= 2 D=  5.51D-04 Err=  5.55D-05
      PEZero:  N= 3 I= 1 D=  1.10D-03 Err=  4.00D-07
 Maximum DWI energy   std dev =  0.000012903 at pt    37
 Maximum DWI gradient std dev =  0.112895754 at pt    28
 CORRECTOR INTEGRATION CONVERGENCE:
   Recorrection delta-x convergence threshold:    0.010000
   Delta-x Convergence NOT Met
 IRC-IRC-IRC-IRC-IRC-IRC-IRC-IRC-IRC-IRC-IRC-IRC-IRC-IRC-IRC-IRC-IRC-IRC
                          Input orientation:                          
 ---------------------------------------------------------------------
 Center     Atomic      Atomic             Coordinates (Angstroms)
 Number     Number       Type             X           Y           Z
 ---------------------------------------------------------------------
      1         14           0        0.339395   -0.233421    0.054475
      2          8           0        0.923555   -0.925997   -1.360772
      3          1           0        0.275531   -1.561749   -1.657105
      4          8           0        2.289044    0.994638   -0.018244
      5          1           0        2.812321    0.467705   -0.620657
      6          8           0       -0.463675    1.233433   -0.193338
      7          8           0        1.142947   -0.475254    1.399724
      8          1           0        2.053762    0.355622    0.825535
      9          8           0       -1.141561   -1.118169    0.132890
     10          6           0       -2.206738   -0.253052    0.364867
     11          1           0       -3.140724   -0.671421   -0.031286
     12          1           0       -2.345206   -0.081382    1.443674
     13          6           0       -1.844097    1.064792   -0.328360
     14          1           0       -2.120613    1.014271   -1.393234
     15          1           0       -2.372375    1.916724    0.115427
 ---------------------------------------------------------------------
                    Distance matrix (angstroms):
                    1          2          3          4          5
     1  Si   0.000000
     2  O    1.680425   0.000000
     3  H    2.167496   0.954949   0.000000
     4  O    2.305330   2.712154   3.643517   0.000000
     5  H    2.657582   2.461222   3.410016   0.956231   0.000000
     6  O    1.690560   2.819653   3.240691   2.768600   3.391326
     7  O    1.585520   2.805644   3.358138   2.341956   2.785305
     8  H    1.969914   2.774861   3.605818   1.084280   1.636901
     9  O    1.726893   2.555907   2.325725   4.031855   4.326201
    10  C    2.565058   3.637226   3.458716   4.681406   5.165433
    11  H    3.508622   4.283772   3.886743   5.679640   6.089640
    12  H    3.026562   4.388974   4.321410   4.977078   5.582387
    13  C    2.568960   3.562163   3.627272   4.145353   4.703635
    14  H    3.115162   3.610076   3.528033   4.619097   5.022893
    15  H    3.461291   4.596018   4.717314   4.753624   5.433466
                    6          7          8          9         10
     6  O    0.000000
     7  O    2.835259   0.000000
     8  H    2.854145   1.360012   0.000000
     9  O    2.469005   2.690202   3.586351   0.000000
    10  C    2.357858   3.512932   4.328344   1.391705   0.000000
    11  H    3.289577   4.520632   5.363921   2.055040   1.097406
    12  H    2.819345   3.510596   4.463630   2.059574   1.101122
    13  C    1.397224   3.778948   4.126464   2.339151   1.532574
    14  H    2.057480   4.546441   4.773066   2.799089   2.168973
    15  H    2.050698   4.441674   4.746787   3.275024   2.190338
                   11         12         13         14         15
    11  H    0.000000
    12  H    1.776655   0.000000
    13  C    2.187220   2.169085   0.000000
    14  H    2.395221   3.049417   1.101349   0.000000
    15  H    2.703771   2.399459   1.096273   1.775912   0.000000
 Symmetry turned off by external request.
 Stoichiometry    C2H7O5Si(1-)
 Framework group  C1[X(C2H7O5Si)]
 Deg. of freedom    39
 Full point group                 C1      NOp   1
 Rotational constants (GHZ):           2.9036414           1.4203364           1.3142528
 Standard basis: def2TZVPP (5D, 7F)
   357 basis functions,   545 primitive gaussians,   405 cartesian basis functions
    37 alpha electrons       37 beta electrons
       nuclear repulsion energy       536.4291509697 Hartrees.
 NAtoms=   15 NActive=   15 NUniq=   15 SFac= 1.00D+00 NAtFMM=   60 NAOKFM=F Big=F
 Integral buffers will be    131072 words long.
 Raffenetti 2 integral format.
 Two-electron integral symmetry is turned off.
 Nuclear repulsion after empirical dispersion term =      536.4228574501 Hartrees.
 One-electron integrals computed using PRISM.
   1 Symmetry operations used in ECPInt.
 ECPInt:  NShTT=    8911 NPrTT=   25186 LenC2=    8638 LenP2D=   19488.
 LDataN:  DoStor=T MaxTD1= 6 Len=  172
 NBasis=   357 RedAO= T EigKep=  3.14D-04  NBF=   357
 NBsUse=   357 1.00D-06 EigRej= -1.00D+00 NBFU=   357
 Initial guess from the checkpoint file:  "IRC_PbiL_collapseTo_QbiL_Forward.chk"
 B after Tr=     0.000016   -0.000011    0.000045
         Rot=    1.000000   -0.000005    0.000007    0.000003 Ang=  -0.00 deg.
 ExpMin= 7.01D-02 ExpMax= 4.48D+04 ExpMxC= 1.53D+03 IAcc=3 IRadAn=         5 AccDes= 0.00D+00
 Harris functional with IExCor= 4639 and IRadAn=       5 diagonalized for initial guess.
 HarFok:  IExCor= 4639 AccDes= 0.00D+00 IRadAn=         5 IDoV= 1 UseB2=F ITyADJ=14
 ICtDFT=  3500011 ScaDFX=  1.000000  1.000000  1.000000  1.000000
 FoFCou: FMM=F IPFlag=           0 FMFlag=      100000 FMFlg1=           0
         NFxFlg=           0 DoJE=T BraDBF=F KetDBF=T FulRan=T
         wScrn=  0.000000 ICntrl=       500 IOpCl=  0 I1Cent=   200000004 NGrid=           0
         NMat0=    1 NMatS0=      1 NMatT0=    0 NMatD0=    1 NMtDS0=    0 NMtDT0=    0
 Symmetry not used in FoFCou.
 Requested convergence on RMS density matrix=1.00D-08 within 128 cycles.
 Requested convergence on MAX density matrix=1.00D-06.
 Requested convergence on             energy=1.00D-06.
 No special actions if energy rises.
 Integral accuracy reduced to 1.0D-05 until final iterations.
 Initial convergence to 1.0D-05 achieved.  Increase integral accuracy.
 SCF Done:  E(RwB97XD) =  -746.317015278     A.U. after    9 cycles
            NFock=  9  Conv=0.61D-08     -V/T= 2.0033
 DoSCS=F DFT=T ScalE2(SS,OS)=  1.000000  1.000000
 Range of M.O.s used for correlation:     1   357
 NBasis=   357 NAE=    37 NBE=    37 NFC=     0 NFV=     0
 NROrb=    357 NOA=    37 NOB=    37 NVA=   320 NVB=   320

 **** Warning!!: The largest alpha MO coefficient is  0.11576497D+02

 Symmetrizing basis deriv contribution to polar:
 IMax=3 JMax=2 DiffMx= 0.00D+00
   1 Symmetry operations used in ECPInt.
 ECPInt:  NShTT=    8911 NPrTT=   25186 LenC2=    8638 LenP2D=   19488.
 LDataN:  DoStor=T MaxTD1= 7 Len=  274
 Calling FoFJK, ICntrl=      2127 FMM=F ISym2X=0 I1Cent= 0 IOpClX= 0 NMat=1 NMatS=1 NMatT=0.
 -------------------------------------------------------------------
 Center     Atomic                   Forces (Hartrees/Bohr)
 Number     Number              X              Y              Z
 -------------------------------------------------------------------
      1       14          -0.005387227   -0.008765044    0.010898921
      2        8           0.000906755    0.002238677   -0.000160941
      3        1           0.000045517    0.000152614   -0.000009409
      4        8           0.008585122    0.006661956   -0.003292308
      5        1          -0.000017680   -0.000397225    0.000032270
      6        8           0.000891443   -0.000071924   -0.000999473
      7        8          -0.005885320   -0.002980422   -0.001560446
      8        1           0.003414530    0.003666239   -0.002602447
      9        8          -0.002672927   -0.000782263   -0.002026974
     10        6          -0.000192604    0.000022569   -0.000171285
     11        1          -0.000103516    0.000126224    0.000036239
     12        1           0.000076296   -0.000002474    0.000005837
     13        6           0.000326073    0.000110012   -0.000142568
     14        1          -0.000023352    0.000001498   -0.000007381
     15        1           0.000036890    0.000019563   -0.000000033
 -------------------------------------------------------------------
 Cartesian Forces:  Max     0.010898921 RMS     0.003166975
 IRC-IRC-IRC-IRC-IRC-IRC-IRC-IRC-IRC-IRC-IRC-IRC-IRC-IRC-IRC-IRC-IRC-IRC
 Error in corrector energy =          -0.0000023413
 Magnitude of corrector gradient =     0.0218207081
 Magnitude of analytic gradient =      0.0212447173
 Magnitude of difference =             0.0010175264
 Angle between gradients (degrees)=    2.2323
 Pt  3 Step number   2 out of a maximum of 100
 Modified Bulirsch-Stoer Extrapolation Cycles:
    EPS =    0.000010000000000
      PEZero:  N= 2 I= 1 D=  5.51D-04 Err=  7.42D-05
      PEZero:  N= 3 I= 2 D=  5.51D-04 Err=  4.95D-05
      PEZero:  N= 3 I= 1 D=  1.10D-03 Err=  3.43D-07
 Maximum DWI energy   std dev =  0.000014619 at pt    35
 Maximum DWI gradient std dev =  0.105000354 at pt    28
 CORRECTOR INTEGRATION CONVERGENCE:
   Recorrection delta-x convergence threshold:    0.010000
   Delta-x Convergence Met
 Point Number:   3          Path Number:   1
   CHANGE IN THE REACTION COORDINATE =    0.10540
   NET REACTION COORDINATE UP TO THIS POINT =    0.31678
  # OF POINTS ALONG THE PATH =   3
  # OF STEPS =   2

 Calculating another point on the path.
 IRC-IRC-IRC-IRC-IRC-IRC-IRC-IRC-IRC-IRC-IRC-IRC-IRC-IRC-IRC-IRC-IRC-IRC
                          Input orientation:                          
 ---------------------------------------------------------------------
 Center     Atomic      Atomic             Coordinates (Angstroms)
 Number     Number       Type             X           Y           Z
 ---------------------------------------------------------------------
      1         14           0        0.337798   -0.235972    0.057588
      2          8           0        0.924005   -0.924831   -1.360787
      3          1           0        0.275979   -1.560451   -1.657285
      4          8           0        2.293573    0.998186   -0.020035
      5          1           0        2.812256    0.464538   -0.620659
      6          8           0       -0.463209    1.233339   -0.193812
      7          8           0        1.140032   -0.476798    1.399081
      8          1           0        2.078453    0.382701    0.805983
      9          8           0       -1.142961   -1.118609    0.131834
     10          6           0       -2.206917   -0.253009    0.364732
     11          1           0       -3.141611   -0.670368   -0.031009
     12          1           0       -2.344609   -0.081407    1.443701
     13          6           0       -1.843861    1.064876   -0.328459
     14          1           0       -2.120767    1.014311   -1.393298
     15          1           0       -2.372049    1.916889    0.115429
 ---------------------------------------------------------------------
                    Distance matrix (angstroms):
                    1          2          3          4          5
     1  Si   0.000000
     2  O    1.682247   0.000000
     3  H    2.167685   0.954915   0.000000
     4  O    2.313920   2.715018   3.646628   0.000000
     5  H    2.659638   2.458378   3.407033   0.956327   0.000000
     6  O    1.692243   2.818491   3.239355   2.772245   3.391448
     7  O    1.581513   2.804331   3.355930   2.349494   2.786000
     8  H    1.993171   2.781597   3.618348   1.052332   1.606384
     9  O    1.725459   2.556916   2.325847   4.039016   4.326239
    10  C    2.563240   3.637504   3.458718   4.686997   5.165072
    11  H    3.507540   4.285125   3.888051   5.685544   6.089682
    12  H    3.023327   4.388663   4.321015   4.982045   5.581478
    13  C    2.569216   3.561702   3.626547   4.149450   4.703744
    14  H    3.116539   3.609981   3.527531   4.623041   5.023338
    15  H    3.461419   4.595494   4.716616   4.757141   5.433982
                    6          7          8          9         10
     6  O    0.000000
     7  O    2.834124   0.000000
     8  H    2.860633   1.403972   0.000000
     9  O    2.469771   2.688847   3.617446   0.000000
    10  C    2.358329   3.510275   4.354679   1.391225   0.000000
    11  H    3.290052   4.518307   5.390601   2.054760   1.097475
    12  H    2.819516   3.507285   4.492834   2.059306   1.101173
    13  C    1.397394   3.776874   4.139670   2.338961   1.532691
    14  H    2.057726   4.544623   4.782176   2.798477   2.168914
    15  H    2.050985   4.439844   4.757895   3.274931   2.190406
                   11         12         13         14         15
    11  H    0.000000
    12  H    1.776755   0.000000
    13  C    2.187167   2.169162   0.000000
    14  H    2.395014   3.049470   1.101415   0.000000
    15  H    2.703252   2.399635   1.096333   1.775964   0.000000
 Symmetry turned off by external request.
 Stoichiometry    C2H7O5Si(1-)
 Framework group  C1[X(C2H7O5Si)]
 Deg. of freedom    39
 Full point group                 C1      NOp   1
 Rotational constants (GHZ):           2.9019586           1.4191013           1.3124608
 Standard basis: def2TZVPP (5D, 7F)
   357 basis functions,   545 primitive gaussians,   405 cartesian basis functions
    37 alpha electrons       37 beta electrons
       nuclear repulsion energy       536.2722971435 Hartrees.
 NAtoms=   15 NActive=   15 NUniq=   15 SFac= 1.00D+00 NAtFMM=   60 NAOKFM=F Big=F
 Integral buffers will be    131072 words long.
 Raffenetti 2 integral format.
 Two-electron integral symmetry is turned off.
 Nuclear repulsion after empirical dispersion term =      536.2660090755 Hartrees.
 One-electron integrals computed using PRISM.
   1 Symmetry operations used in ECPInt.
 ECPInt:  NShTT=    8911 NPrTT=   25186 LenC2=    8638 LenP2D=   19484.
 LDataN:  DoStor=T MaxTD1= 6 Len=  172
 NBasis=   357 RedAO= T EigKep=  3.14D-04  NBF=   357
 NBsUse=   357 1.00D-06 EigRej= -1.00D+00 NBFU=   357
 Initial guess from the checkpoint file:  "IRC_PbiL_collapseTo_QbiL_Forward.chk"
 B after Tr=     0.000314    0.000333   -0.000243
         Rot=    1.000000    0.000072   -0.000073   -0.000040 Ang=   0.01 deg.
 ExpMin= 7.01D-02 ExpMax= 4.48D+04 ExpMxC= 1.53D+03 IAcc=3 IRadAn=         5 AccDes= 0.00D+00
 Harris functional with IExCor= 4639 and IRadAn=       5 diagonalized for initial guess.
 HarFok:  IExCor= 4639 AccDes= 0.00D+00 IRadAn=         5 IDoV= 1 UseB2=F ITyADJ=14
 ICtDFT=  3500011 ScaDFX=  1.000000  1.000000  1.000000  1.000000
 FoFCou: FMM=F IPFlag=           0 FMFlag=      100000 FMFlg1=           0
         NFxFlg=           0 DoJE=T BraDBF=F KetDBF=T FulRan=T
         wScrn=  0.000000 ICntrl=       500 IOpCl=  0 I1Cent=   200000004 NGrid=           0
         NMat0=    1 NMatS0=      1 NMatT0=    0 NMatD0=    1 NMtDS0=    0 NMtDT0=    0
 Symmetry not used in FoFCou.
 Requested convergence on RMS density matrix=1.00D-08 within 128 cycles.
 Requested convergence on MAX density matrix=1.00D-06.
 Requested convergence on             energy=1.00D-06.
 No special actions if energy rises.
 Integral accuracy reduced to 1.0D-05 until final iterations.
 Initial convergence to 1.0D-05 achieved.  Increase integral accuracy.
 SCF Done:  E(RwB97XD) =  -746.317714256     A.U. after   11 cycles
            NFock= 11  Conv=0.78D-08     -V/T= 2.0032
 DoSCS=F DFT=T ScalE2(SS,OS)=  1.000000  1.000000
 Range of M.O.s used for correlation:     1   357
 NBasis=   357 NAE=    37 NBE=    37 NFC=     0 NFV=     0
 NROrb=    357 NOA=    37 NOB=    37 NVA=   320 NVB=   320

 **** Warning!!: The largest alpha MO coefficient is  0.10752986D+02

 Symmetrizing basis deriv contribution to polar:
 IMax=3 JMax=2 DiffMx= 0.00D+00
   1 Symmetry operations used in ECPInt.
 ECPInt:  NShTT=    8911 NPrTT=   25186 LenC2=    8638 LenP2D=   19484.
 LDataN:  DoStor=T MaxTD1= 7 Len=  274
 Calling FoFJK, ICntrl=      2127 FMM=F ISym2X=0 I1Cent= 0 IOpClX= 0 NMat=1 NMatS=1 NMatT=0.
 -------------------------------------------------------------------
 Center     Atomic                   Forces (Hartrees/Bohr)
 Number     Number              X              Y              Z
 -------------------------------------------------------------------
      1       14          -0.006536346   -0.010101795    0.011986789
      2        8           0.000996036    0.002760746    0.000120161
      3        1           0.000069751    0.000180140   -0.000058535
      4        8           0.011567632    0.010425910   -0.007573918
      5        1          -0.000088960   -0.000277693   -0.000107708
      6        8           0.001073909   -0.000366466   -0.001069682
      7        8          -0.006473144   -0.003641692   -0.001054373
      8        1           0.002626491    0.001669513    0.000528969
      9        8          -0.003284860   -0.001127520   -0.002433404
     10        6          -0.000380065    0.000144106   -0.000211188
     11        1          -0.000126213    0.000152422    0.000050100
     12        1           0.000087602   -0.000001099    0.000005710
     13        6           0.000441628    0.000155275   -0.000175123
     14        1          -0.000019988    0.000004726   -0.000007734
     15        1           0.000046529    0.000023428   -0.000000065
 -------------------------------------------------------------------
 Cartesian Forces:  Max     0.011986789 RMS     0.003899460
 IRC-IRC-IRC-IRC-IRC-IRC-IRC-IRC-IRC-IRC-IRC-IRC-IRC-IRC-IRC-IRC-IRC-IRC
 Pt  4 Step number   1 out of a maximum of 100
 Modified Bulirsch-Stoer Extrapolation Cycles:
    EPS =    0.000010000000000
      PEZero:  N= 2 I= 1 D=  5.51D-04 Err=  9.00D-05
      PEZero:  N= 3 I= 2 D=  5.51D-04 Err=  5.98D-05
      PEZero:  N= 3 I= 1 D=  1.10D-03 Err=  2.91D-07
 Maximum DWI energy   std dev =  0.000009529 at pt    34
 Maximum DWI gradient std dev =  0.131789357 at pt    28
 CORRECTOR INTEGRATION CONVERGENCE:
   Recorrection delta-x convergence threshold:    0.010000
   Delta-x Convergence NOT Met
 IRC-IRC-IRC-IRC-IRC-IRC-IRC-IRC-IRC-IRC-IRC-IRC-IRC-IRC-IRC-IRC-IRC-IRC
                          Input orientation:                          
 ---------------------------------------------------------------------
 Center     Atomic      Atomic             Coordinates (Angstroms)
 Number     Number       Type             X           Y           Z
 ---------------------------------------------------------------------
      1         14           0        0.337698   -0.236115    0.057744
      2          8           0        0.924027   -0.924744   -1.360776
      3          1           0        0.276031   -1.560373   -1.657365
      4          8           0        2.294007    0.998711   -0.020586
      5          1           0        2.812216    0.464567   -0.621074
      6          8           0       -0.463180    1.233317   -0.193854
      7          8           0        1.139900   -0.476891    1.399095
      8          1           0        2.077959    0.380230    0.810880
      9          8           0       -1.143050   -1.118651    0.131774
     10          6           0       -2.206933   -0.252992    0.364740
     11          1           0       -3.141659   -0.670301   -0.030943
     12          1           0       -2.344545   -0.081399    1.443717
     13          6           0       -1.843840    1.064881   -0.328467
     14          1           0       -2.120786    1.014297   -1.393294
     15          1           0       -2.372033    1.916891    0.115425
 ---------------------------------------------------------------------
                    Distance matrix (angstroms):
                    1          2          3          4          5
     1  Si   0.000000
     2  O    1.682317   0.000000
     3  H    2.167732   0.954928   0.000000
     4  O    2.314751   2.715259   3.646942   0.000000
     5  H    2.659884   2.458170   3.406834   0.956262   0.000000
     6  O    1.692318   2.818382   3.239291   2.772570   3.391418
     7  O    1.581368   2.804294   3.355913   2.350502   2.786407
     8  H    1.993891   2.783991   3.620099   1.058551   1.611439
     9  O    1.725389   2.556973   2.325925   4.039776   4.326371
    10  C    2.563138   3.637521   3.458795   4.687610   5.165130
    11  H    3.507465   4.285207   3.888197   5.686138   6.089729
    12  H    3.023125   4.388618   4.321052   4.982668   5.581543
    13  C    2.569214   3.561651   3.626539   4.149813   4.703706
    14  H    3.116598   3.609961   3.527519   4.623306   5.023249
    15  H    3.461417   4.595441   4.716609   4.757466   5.433978
                    6          7          8          9         10
     6  O    0.000000
     7  O    2.834108   0.000000
     8  H    2.862628   1.400218   0.000000
     9  O    2.469820   2.688833   3.617006   0.000000
    10  C    2.358350   3.510173   4.354344   1.391217   0.000000
    11  H    3.290069   4.518204   5.390426   2.054734   1.097463
    12  H    2.819513   3.507102   4.491339   2.059290   1.101169
    13  C    1.397395   3.776803   4.140938   2.338961   1.532697
    14  H    2.057737   4.544574   4.784337   2.798439   2.168899
    15  H    2.051011   4.439784   4.758930   3.274932   2.190390
                   11         12         13         14         15
    11  H    0.000000
    12  H    1.776744   0.000000
    13  C    2.187169   2.169170   0.000000
    14  H    2.395005   3.049467   1.101414   0.000000
    15  H    2.703204   2.399641   1.096335   1.775960   0.000000
 Symmetry turned off by external request.
 Stoichiometry    C2H7O5Si(1-)
 Framework group  C1[X(C2H7O5Si)]
 Deg. of freedom    39
 Full point group                 C1      NOp   1
 Rotational constants (GHZ):           2.9015415           1.4189590           1.3123125
 Standard basis: def2TZVPP (5D, 7F)
   357 basis functions,   545 primitive gaussians,   405 cartesian basis functions
    37 alpha electrons       37 beta electrons
       nuclear repulsion energy       536.2339614428 Hartrees.
 NAtoms=   15 NActive=   15 NUniq=   15 SFac= 1.00D+00 NAtFMM=   60 NAOKFM=F Big=F
 Integral buffers will be    131072 words long.
 Raffenetti 2 integral format.
 Two-electron integral symmetry is turned off.
 Nuclear repulsion after empirical dispersion term =      536.2276728763 Hartrees.
 One-electron integrals computed using PRISM.
   1 Symmetry operations used in ECPInt.
 ECPInt:  NShTT=    8911 NPrTT=   25186 LenC2=    8638 LenP2D=   19484.
 LDataN:  DoStor=T MaxTD1= 6 Len=  172
 NBasis=   357 RedAO= T EigKep=  3.14D-04  NBF=   357
 NBsUse=   357 1.00D-06 EigRej= -1.00D+00 NBFU=   357
 Initial guess from the checkpoint file:  "IRC_PbiL_collapseTo_QbiL_Forward.chk"
 B after Tr=     0.000007   -0.000014    0.000043
         Rot=    1.000000   -0.000005    0.000007    0.000003 Ang=  -0.00 deg.
 ExpMin= 7.01D-02 ExpMax= 4.48D+04 ExpMxC= 1.53D+03 IAcc=3 IRadAn=         5 AccDes= 0.00D+00
 Harris functional with IExCor= 4639 and IRadAn=       5 diagonalized for initial guess.
 HarFok:  IExCor= 4639 AccDes= 0.00D+00 IRadAn=         5 IDoV= 1 UseB2=F ITyADJ=14
 ICtDFT=  3500011 ScaDFX=  1.000000  1.000000  1.000000  1.000000
 FoFCou: FMM=F IPFlag=           0 FMFlag=      100000 FMFlg1=           0
         NFxFlg=           0 DoJE=T BraDBF=F KetDBF=T FulRan=T
         wScrn=  0.000000 ICntrl=       500 IOpCl=  0 I1Cent=   200000004 NGrid=           0
         NMat0=    1 NMatS0=      1 NMatT0=    0 NMatD0=    1 NMtDS0=    0 NMtDT0=    0
 Symmetry not used in FoFCou.
 Requested convergence on RMS density matrix=1.00D-08 within 128 cycles.
 Requested convergence on MAX density matrix=1.00D-06.
 Requested convergence on             energy=1.00D-06.
 No special actions if energy rises.
 Integral accuracy reduced to 1.0D-05 until final iterations.
 Initial convergence to 1.0D-05 achieved.  Increase integral accuracy.
 SCF Done:  E(RwB97XD) =  -746.317735400     A.U. after    9 cycles
            NFock=  9  Conv=0.70D-08     -V/T= 2.0032
 DoSCS=F DFT=T ScalE2(SS,OS)=  1.000000  1.000000
 Range of M.O.s used for correlation:     1   357
 NBasis=   357 NAE=    37 NBE=    37 NFC=     0 NFV=     0
 NROrb=    357 NOA=    37 NOB=    37 NVA=   320 NVB=   320

 **** Warning!!: The largest alpha MO coefficient is  0.10740177D+02

 Symmetrizing basis deriv contribution to polar:
 IMax=3 JMax=2 DiffMx= 0.00D+00
[...]
      6        8          -0.001139947   -0.001005392   -0.000236512
      7        8           0.000650778    0.000581882   -0.001045597
      8        1           0.000282331    0.000221575   -0.000071369
      9        8          -0.001663104   -0.000420783    0.000932775
     10        6          -0.001349167   -0.000223201   -0.000351332
     11        1          -0.000062887   -0.000020436   -0.000068480
     12        1          -0.000142595    0.000000257   -0.000030559
     13        6          -0.000846025   -0.000312667   -0.000299844
     14        1          -0.000048198   -0.000011491   -0.000016453
     15        1          -0.000042706   -0.000008660   -0.000022249
 -------------------------------------------------------------------
 Cartesian Forces:  Max     0.007306744 RMS     0.001502910
 IRC-IRC-IRC-IRC-IRC-IRC-IRC-IRC-IRC-IRC-IRC-IRC-IRC-IRC-IRC-IRC-IRC-IRC
 Error in corrector energy =          -0.0000284707
 Magnitude of corrector gradient =     0.0092234103
 Magnitude of analytic gradient =      0.0100818282
 Magnitude of difference =             0.0052829805
 Angle between gradients (degrees)=   31.3626
 Pt 51 Step number  98 out of a maximum of 100
 Modified Bulirsch-Stoer Extrapolation Cycles:
    EPS =    0.000010000000000
      PEZero:  N= 2 I= 1 D=  5.51D-04 Err=  2.39D-05
      PEZero:  N= 3 I= 2 D=  5.51D-04 Err=  1.59D-05
      PEZero:  N= 3 I= 1 D=  1.10D-03 Err=  9.43D-08
 Maximum DWI energy   std dev =  0.000002786 at pt    26
 Maximum DWI gradient std dev =  0.240048398 at pt    29
 CORRECTOR INTEGRATION CONVERGENCE:
   Recorrection delta-x convergence threshold:    0.010000
   Delta-x Convergence NOT Met
 IRC-IRC-IRC-IRC-IRC-IRC-IRC-IRC-IRC-IRC-IRC-IRC-IRC-IRC-IRC-IRC-IRC-IRC
                          Input orientation:                          
 ---------------------------------------------------------------------
 Center     Atomic      Atomic             Coordinates (Angstroms)
 Number     Number       Type             X           Y           Z
 ---------------------------------------------------------------------
      1         14           0        0.216130   -0.358256    0.122965
      2          8           0        0.933261   -0.894860   -1.297066
      3          1           0        0.284439   -1.102678   -1.960640
      4          8           0        2.741835    1.223122   -0.080658
      5          1           0        2.632779    0.651316   -0.843572
      6          8           0       -0.483731    1.159220   -0.173970
      7          8           0        1.143868   -0.455757    1.352271
      8          1           0        2.314522    0.695342    0.629505
      9          8           0       -1.277249   -1.170191    0.113291
     10          6           0       -2.302250   -0.243240    0.339486
     11          1           0       -3.248068   -0.616837   -0.068386
     12          1           0       -2.439119   -0.074037    1.417120
     13          6           0       -1.863927    1.060632   -0.339911
     14          1           0       -2.126903    1.028607   -1.410092
     15          1           0       -2.366447    1.930381    0.099329
 ---------------------------------------------------------------------
                    Distance matrix (angstroms):
                    1          2          3          4          5
     1  Si   0.000000
     2  O    1.678901   0.000000
     3  H    2.213649   0.951046   0.000000
     4  O    2.986872   3.039150   3.870720   0.000000
     5  H    2.791705   2.341938   3.136723   0.959632   0.000000
     6  O    1.697265   2.736504   2.983028   3.227548   3.227842
     7  O    1.543178   2.693725   3.483175   2.724963   2.874751
     8  H    2.402061   2.854522   3.750062   0.982588   1.507707
     9  O    1.699857   2.636526   2.597041   4.681731   4.418347
    10  C    2.530286   3.683944   3.566536   5.269680   5.153092
    11  H    3.479102   4.366975   4.036741   6.266142   6.065763
    12  H    2.967485   4.406076   4.459276   5.546913   5.600090
    13  C    2.560105   3.544624   3.452847   4.615914   4.543300
    14  H    3.124653   3.616228   3.264973   5.050726   4.808104
    15  H    3.450815   4.562892   4.524392   5.160150   5.245696
                    6          7          8          9         10
     6  O    0.000000
     7  O    2.754387   0.000000
     8  H    2.948046   1.793837   0.000000
     9  O    2.477569   2.811992   4.080136   0.000000
    10  C    2.353198   3.598142   4.720130   1.400368   0.000000
    11  H    3.287413   4.618801   5.757715   2.055076   1.095677
    12  H    2.806427   3.603847   4.879487   2.061909   1.099390
    13  C    1.393627   3.769583   4.304956   2.350778   1.534207
    14  H    2.060357   4.531218   4.898702   2.806657   2.170107
    15  H    2.052803   4.425589   4.870101   3.286350   2.187790
                   11         12         13         14         15
    11  H    0.000000
    12  H    1.776446   0.000000
    13  C    2.191683   2.169212   0.000000
    14  H    2.400973   3.050644   1.102483   0.000000
    15  H    2.700686   2.399905   1.096322   1.774523   0.000000
 Symmetry turned off by external request.
 Stoichiometry    C2H7O5Si(1-)
 Framework group  C1[X(C2H7O5Si)]
 Deg. of freedom    39
 Full point group                 C1      NOp   1
 Rotational constants (GHZ):           2.8923488           1.2550945           1.1489637
 Standard basis: def2TZVPP (5D, 7F)
   357 basis functions,   545 primitive gaussians,   405 cartesian basis functions
    37 alpha electrons       37 beta electrons
       nuclear repulsion energy       522.8174168081 Hartrees.
 NAtoms=   15 NActive=   15 NUniq=   15 SFac= 1.00D+00 NAtFMM=   60 NAOKFM=F Big=F
 Integral buffers will be    131072 words long.
 Raffenetti 2 integral format.
 Two-electron integral symmetry is turned off.
 Nuclear repulsion after empirical dispersion term =      522.8109181143 Hartrees.
 One-electron integrals computed using PRISM.
   1 Symmetry operations used in ECPInt.
 ECPInt:  NShTT=    8911 NPrTT=   25186 LenC2=    8588 LenP2D=   19276.
 LDataN:  DoStor=T MaxTD1= 6 Len=  172
 NBasis=   357 RedAO= T EigKep=  3.10D-04  NBF=   357
 NBsUse=   357 1.00D-06 EigRej= -1.00D+00 NBFU=   357
 Initial guess from the checkpoint file:  "IRC_PbiL_collapseTo_QbiL_Forward.chk"
 B after Tr=    -0.000001    0.000055   -0.000055
         Rot=    1.000000    0.000033   -0.000017   -0.000010 Ang=   0.00 deg.
 ExpMin= 7.01D-02 ExpMax= 4.48D+04 ExpMxC= 1.53D+03 IAcc=3 IRadAn=         5 AccDes= 0.00D+00
 Harris functional with IExCor= 4639 and IRadAn=       5 diagonalized for initial guess.
 HarFok:  IExCor= 4639 AccDes= 0.00D+00 IRadAn=         5 IDoV= 1 UseB2=F ITyADJ=14
 ICtDFT=  3500011 ScaDFX=  1.000000  1.000000  1.000000  1.000000
 FoFCou: FMM=F IPFlag=           0 FMFlag=      100000 FMFlg1=           0
         NFxFlg=           0 DoJE=T BraDBF=F KetDBF=T FulRan=T
         wScrn=  0.000000 ICntrl=       500 IOpCl=  0 I1Cent=   200000004 NGrid=           0
         NMat0=    1 NMatS0=      1 NMatT0=    0 NMatD0=    1 NMtDS0=    0 NMtDT0=    0
 Symmetry not used in FoFCou.
 Requested convergence on RMS density matrix=1.00D-08 within 128 cycles.
 Requested convergence on MAX density matrix=1.00D-06.
 Requested convergence on             energy=1.00D-06.
 No special actions if energy rises.
 Integral accuracy reduced to 1.0D-05 until final iterations.
 Initial convergence to 1.0D-05 achieved.  Increase integral accuracy.
 SCF Done:  E(RwB97XD) =  -746.338796681     A.U. after    9 cycles
            NFock=  9  Conv=0.81D-08     -V/T= 2.0032
 DoSCS=F DFT=T ScalE2(SS,OS)=  1.000000  1.000000
 Range of M.O.s used for correlation:     1   357
 NBasis=   357 NAE=    37 NBE=    37 NFC=     0 NFV=     0
 NROrb=    357 NOA=    37 NOB=    37 NVA=   320 NVB=   320

 **** Warning!!: The largest alpha MO coefficient is  0.13238198D+02

 Symmetrizing basis deriv contribution to polar:
 IMax=3 JMax=2 DiffMx= 0.00D+00
   1 Symmetry operations used in ECPInt.
 ECPInt:  NShTT=    8911 NPrTT=   25186 LenC2=    8588 LenP2D=   19276.
 LDataN:  DoStor=T MaxTD1= 7 Len=  274
 Calling FoFJK, ICntrl=      2127 FMM=F ISym2X=0 I1Cent= 0 IOpClX= 0 NMat=1 NMatS=1 NMatT=0.
 -------------------------------------------------------------------
 Center     Atomic                   Forces (Hartrees/Bohr)
 Number     Number              X              Y              Z
 -------------------------------------------------------------------
      1       14          -0.002156836   -0.001892949    0.000788466
      2        8           0.001584032    0.000684058    0.002937502
      3        1          -0.002033063    0.000173560   -0.002625150
      4        8           0.007037468    0.000900845   -0.001463244
      5        1          -0.000003825    0.001557932    0.001595454
      6        8          -0.001147667   -0.000998625   -0.000211864
      7        8           0.000600579    0.000576043   -0.001046621
      8        1           0.000204383    0.000022482   -0.000060237
      9        8          -0.001636116   -0.000447516    0.000897092
     10        6          -0.001375122   -0.000195870   -0.000384478
     11        1          -0.000021357   -0.000042162   -0.000064326
     12        1          -0.000127510   -0.000004485   -0.000026278
     13        6          -0.000823471   -0.000292304   -0.000298103
     14        1          -0.000054176   -0.000020651   -0.000017520
     15        1          -0.000047319   -0.000020359   -0.000020693
 -------------------------------------------------------------------
 Cartesian Forces:  Max     0.007037468 RMS     0.001489248
 IRC-IRC-IRC-IRC-IRC-IRC-IRC-IRC-IRC-IRC-IRC-IRC-IRC-IRC-IRC-IRC-IRC-IRC
 Error in corrector energy =          -0.0000271263
 Magnitude of corrector gradient =     0.0092808070
 Magnitude of analytic gradient =      0.0099901782
 Magnitude of difference =             0.0057742801
 Angle between gradients (degrees)=   34.6232
 Pt 51 Step number  99 out of a maximum of 100
 Modified Bulirsch-Stoer Extrapolation Cycles:
    EPS =    0.000010000000000
      PEZero:  N= 2 I= 1 D=  5.51D-04 Err=  1.52D-04
      PEZero:  N= 3 I= 2 D=  5.51D-04 Err=  1.01D-04
      PEZero:  N= 3 I= 1 D=  1.10D-03 Err=  3.50D-07
 Maximum DWI energy   std dev =  0.000008202 at pt    22
 Maximum DWI gradient std dev =  0.546613943 at pt    56
 CORRECTOR INTEGRATION CONVERGENCE:
   Recorrection delta-x convergence threshold:    0.010000
   Delta-x Convergence NOT Met
 IRC-IRC-IRC-IRC-IRC-IRC-IRC-IRC-IRC-IRC-IRC-IRC-IRC-IRC-IRC-IRC-IRC-IRC
                          Input orientation:                          
 ---------------------------------------------------------------------
 Center     Atomic      Atomic             Coordinates (Angstroms)
 Number     Number       Type             X           Y           Z
 ---------------------------------------------------------------------
      1         14           0        0.216229   -0.358227    0.122912
      2          8           0        0.933589   -0.895478   -1.296388
      3          1           0        0.281871   -1.097610   -1.966739
      4          8           0        2.741193    1.222834   -0.080844
      5          1           0        2.634835    0.651160   -0.839843
      6          8           0       -0.483696    1.159291   -0.173981
      7          8           0        1.143803   -0.455812    1.352350
      8          1           0        2.314087    0.695060    0.629759
      9          8           0       -1.277142   -1.170140    0.113253
     10          6           0       -2.302107   -0.243239    0.339547
     11          1           0       -3.247814   -0.617100   -0.068220
     12          1           0       -2.438824   -0.074004    1.417213
     13          6           0       -1.863885    1.060642   -0.339884
     14          1           0       -2.126958    1.028508   -1.410057
     15          1           0       -2.366498    1.930329    0.099347
 ---------------------------------------------------------------------
                    Distance matrix (angstroms):
                    1          2          3          4          5
     1  Si   0.000000
     2  O    1.678588   0.000000
     3  H    2.217574   0.956538   0.000000
     4  O    2.986087   3.038457   3.871605   0.000000
     5  H    2.792027   2.344091   3.140785   0.956139   0.000000
     6  O    1.697322   2.736891   2.982226   3.226860   3.229057
     7  O    1.543190   2.693197   3.488722   2.724620   2.873026
     8  H    2.401524   2.854055   3.753048   0.982813   1.504838
     9  O    1.699839   2.636259   2.600413   4.680920   4.419174
    10  C    2.530251   3.683942   3.567330   5.268868   5.154058
    11  H    3.478957   4.366923   4.036574   6.265279   6.067079
    12  H    2.967373   4.405862   4.461062   5.546038   5.600195
    13  C    2.560126   3.545021   3.450939   4.615209   4.544901
    14  H    3.124669   3.616849   3.260787   5.050095   4.810635
    15  H    3.450873   4.563314   4.522276   5.159605   5.247064
                    6          7          8          9         10
     6  O    0.000000
     7  O    2.754451   0.000000
     8  H    2.947728   1.793379   0.000000
     9  O    2.477561   2.811868   4.079544   0.000000
    10  C    2.353172   3.597952   4.719521   1.400324   0.000000
    11  H    3.287415   4.618477   5.757055   2.054831   1.095631
    12  H    2.806321   3.603499   4.878699   2.061875   1.099407
    13  C    1.393620   3.769547   4.304569   2.350743   1.534200
    14  H    2.060412   4.531223   4.898461   2.806549   2.170053
    15  H    2.052839   4.425596   4.869815   3.286304   2.187747
                   11         12         13         14         15
    11  H    0.000000
    12  H    1.776493   0.000000
    13  C    2.191775   2.169185   0.000000
    14  H    2.401014   3.050614   1.102502   0.000000
    15  H    2.700776   2.399865   1.096311   1.774531   0.000000
 Symmetry turned off by external request.
 Stoichiometry    C2H7O5Si(1-)
 Framework group  C1[X(C2H7O5Si)]
 Deg. of freedom    39
 Full point group                 C1      NOp   1
 Rotational constants (GHZ):           2.8923853           1.2553194           1.1491247
 Standard basis: def2TZVPP (5D, 7F)
   357 basis functions,   545 primitive gaussians,   405 cartesian basis functions
    37 alpha electrons       37 beta electrons
       nuclear repulsion energy       522.8216367065 Hartrees.
 NAtoms=   15 NActive=   15 NUniq=   15 SFac= 1.00D+00 NAtFMM=   60 NAOKFM=F Big=F
 Integral buffers will be    131072 words long.
 Raffenetti 2 integral format.
 Two-electron integral symmetry is turned off.
 Nuclear repulsion after empirical dispersion term =      522.8151378330 Hartrees.
 One-electron integrals computed using PRISM.
   1 Symmetry operations used in ECPInt.
 ECPInt:  NShTT=    8911 NPrTT=   25186 LenC2=    8588 LenP2D=   19275.
 LDataN:  DoStor=T MaxTD1= 6 Len=  172
 NBasis=   357 RedAO= T EigKep=  3.10D-04  NBF=   357
 NBsUse=   357 1.00D-06 EigRej= -1.00D+00 NBFU=   357
 Initial guess from the checkpoint file:  "IRC_PbiL_collapseTo_QbiL_Forward.chk"
 B after Tr=     0.000001   -0.000055    0.000055
         Rot=    1.000000   -0.000033    0.000017    0.000010 Ang=  -0.00 deg.
 ExpMin= 7.01D-02 ExpMax= 4.48D+04 ExpMxC= 1.53D+03 IAcc=3 IRadAn=         5 AccDes= 0.00D+00
 Harris functional with IExCor= 4639 and IRadAn=       5 diagonalized for initial guess.
 HarFok:  IExCor= 4639 AccDes= 0.00D+00 IRadAn=         5 IDoV= 1 UseB2=F ITyADJ=14
 ICtDFT=  3500011 ScaDFX=  1.000000  1.000000  1.000000  1.000000
 FoFCou: FMM=F IPFlag=           0 FMFlag=      100000 FMFlg1=           0
         NFxFlg=           0 DoJE=T BraDBF=F KetDBF=T FulRan=T
         wScrn=  0.000000 ICntrl=       500 IOpCl=  0 I1Cent=   200000004 NGrid=           0
         NMat0=    1 NMatS0=      1 NMatT0=    0 NMatD0=    1 NMtDS0=    0 NMtDT0=    0
 Symmetry not used in FoFCou.
 Requested convergence on RMS density matrix=1.00D-08 within 128 cycles.
 Requested convergence on MAX density matrix=1.00D-06.
 Requested convergence on             energy=1.00D-06.
 No special actions if energy rises.
 Integral accuracy reduced to 1.0D-05 until final iterations.
 Initial convergence to 1.0D-05 achieved.  Increase integral accuracy.
 SCF Done:  E(RwB97XD) =  -746.338799293     A.U. after    9 cycles
            NFock=  9  Conv=0.78D-08     -V/T= 2.0032
 DoSCS=F DFT=T ScalE2(SS,OS)=  1.000000  1.000000
 Range of M.O.s used for correlation:     1   357
 NBasis=   357 NAE=    37 NBE=    37 NFC=     0 NFV=     0
 NROrb=    357 NOA=    37 NOB=    37 NVA=   320 NVB=   320

 **** Warning!!: The largest alpha MO coefficient is  0.13201765D+02

 Symmetrizing basis deriv contribution to polar:
 IMax=3 JMax=2 DiffMx= 0.00D+00
   1 Symmetry operations used in ECPInt.
 ECPInt:  NShTT=    8911 NPrTT=   25186 LenC2=    8588 LenP2D=   19275.
 LDataN:  DoStor=T MaxTD1= 7 Len=  274
 Calling FoFJK, ICntrl=      2127 FMM=F ISym2X=0 I1Cent= 0 IOpClX= 0 NMat=1 NMatS=1 NMatT=0.
 -------------------------------------------------------------------
 Center     Atomic                   Forces (Hartrees/Bohr)
 Number     Number              X              Y              Z
 -------------------------------------------------------------------
      1       14          -0.002340801   -0.001947154    0.000780927
      2        8          -0.002129301   -0.000589089   -0.001334129
      3        1           0.001867055    0.001456680    0.001603792
      4        8           0.007306744    0.002773361    0.001557056
      5        1          -0.000342176   -0.000494881   -0.001398026
      6        8          -0.001139947   -0.001005392   -0.000236512
      7        8           0.000650778    0.000581882   -0.001045597
      8        1           0.000282331    0.000221575   -0.000071369
      9        8          -0.001663104   -0.000420783    0.000932775
     10        6          -0.001349167   -0.000223201   -0.000351332
     11        1          -0.000062887   -0.000020436   -0.000068480
     12        1          -0.000142595    0.000000257   -0.000030559
     13        6          -0.000846025   -0.000312667   -0.000299844
     14        1          -0.000048198   -0.000011491   -0.000016453
     15        1          -0.000042706   -0.000008660   -0.000022249
 -------------------------------------------------------------------
 Cartesian Forces:  Max     0.007306744 RMS     0.001502910
 IRC-IRC-IRC-IRC-IRC-IRC-IRC-IRC-IRC-IRC-IRC-IRC-IRC-IRC-IRC-IRC-IRC-IRC
 Error in corrector energy =          -0.0000284707
 Magnitude of corrector gradient =     0.0092234103
 Magnitude of analytic gradient =      0.0100818283
 Magnitude of difference =             0.0052829806
 Angle between gradients (degrees)=   31.3626
 Pt 51 Step number 100 out of a maximum of 100
 Modified Bulirsch-Stoer Extrapolation Cycles:
    EPS =    0.000010000000000
      PEZero:  N= 2 I= 1 D=  5.51D-04 Err=  2.39D-05
      PEZero:  N= 3 I= 2 D=  5.51D-04 Err=  1.59D-05
      PEZero:  N= 3 I= 1 D=  1.10D-03 Err=  9.43D-08
 Maximum DWI energy   std dev =  0.000002786 at pt    26
 Maximum DWI gradient std dev =  0.240048397 at pt    29
 CORRECTOR INTEGRATION CONVERGENCE:
   Recorrection delta-x convergence threshold:    0.010000
   Delta-x Convergence NOT Met
 Maximum number of corrector steps exceded.
 Error termination via Lnk1e in /opt/software/gaussian/g16.c01/l123.exe at Fri Feb 16 00:56:49 2024.
 Job cpu time:       1 days 20 hours 30 minutes 27.3 seconds.
 Elapsed time:       0 days 11 hours 41 minutes 37.8 seconds.
 File lengths (MBytes):  RWF=    177 Int=      0 D2E=      0 Chk=     11 Scr=      1
