 Entering Gaussian System, Link 0=/opt/software/gaussian/g16.c01/g16
 Initial command:
 /opt/software/gaussian/g16.c01/l1.exe "/scratch/arhender/25255457/Gau-242385.inp" -scrdir="/scratch/arhender/25255457/"
 Entering Link 1 = /opt/software/gaussian/g16.c01/l1.exe PID=    242390.
  
 Copyright (c) 1988-2019, Gaussian, Inc.  All Rights Reserved.
  
 This is part of the Gaussian(R) 16 program.  It is based on
 the Gaussian(R) 09 system (copyright 2009, Gaussian, Inc.),
 the Gaussian(R) 03 system (copyright 2003, Gaussian, Inc.),
 the Gaussian(R) 98 system (copyright 1998, Gaussian, Inc.),
 the Gaussian(R) 94 system (copyright 1995, Gaussian, Inc.),
 the Gaussian 92(TM) system (copyright 1992, Gaussian, Inc.),
 the Gaussian 90(TM) system (copyright 1990, Gaussian, Inc.),
 the Gaussian 88(TM) system (copyright 1988, Gaussian, Inc.),
 the Gaussian 86(TM) system (copyright 1986, Carnegie Mellon
 University), and the Gaussian 82(TM) system (copyright 1983,
 Carnegie Mellon University). Gaussian is a federally registered
 trademark of Gaussian, Inc.
  
 This software contains proprietary and confidential information,
 including trade secrets, belonging to Gaussian, Inc.
  
 This software is provided under written license and may be
 used, copied, transmitted, or stored only in accord with that
 written license.
  
 The following legend is applicable only to US Government
 contracts under FAR:
  
                    RESTRICTED RIGHTS LEGEND
  
 Use, reproduction and disclosure by the US Government is
 subject to restrictions as set forth in subparagraphs (a)
 and (c) of the Commercial Computer Software - Restricted
 Rights clause in FAR 52.227-19.
  
 Gaussian, Inc.
 340 Quinnipiac St., Bldg. 40, Wallingford CT 06492
  
  
 ---------------------------------------------------------------
 Warning -- This program may not be used in any manner that
 competes with the business of Gaussian, Inc. or will provide
 assistance to any competitor of Gaussian, Inc.  The licensee
 of this program is prohibited from giving any competitor of
 Gaussian, Inc. access to this program.  By using this program,
 the user acknowledges that Gaussian, Inc. is engaged in the
 business of creating and licensing software in the field of
 computational chemistry and represents and warrants to the
 licensee that it is not a competitor of Gaussian, Inc. and that
 it will not use this program in any manner prohibited above.
 ---------------------------------------------------------------
  

 Cite this work as:
 Gaussian 16, Revision C.01,
 M. J. Frisch, G. W. Trucks, H. B. Schlegel, G. E. Scuseria, 
 M. A. Robb, J. R. Cheeseman, G. Scalmani, V. Barone, 
 G. A. Petersson, H. Nakatsuji, X. Li, M. Caricato, A. V. Marenich, 
 J. Bloino, B. G. Janesko, R. Gomperts, B. Mennucci, H. P. Hratchian, 
 J. V. Ortiz, A. F. Izmaylov, J. L. Sonnenberg, D. Williams-Young, 
 F. Ding, F. Lipparini, F. Egidi, J. Goings, B. Peng, A. Petrone, 
 T. Henderson, D. Ranasinghe, V. G. Zakrzewski, J. Gao, N. Rega, 
 G. Zheng, W. Liang, M. Hada, M. Ehara, K. Toyota, R. Fukuda, 
 J. Hasegawa, M. Ishida, T. Nakajima, Y. Honda, O. Kitao, H. Nakai, 
 T. Vreven, K. Throssell, J. A. Montgomery, Jr., J. E. Peralta, 
 F. Ogliaro, M. J. Bearpark, J. J. Heyd, E. N. Brothers, K. N. Kudin, 
 V. N. Staroverov, T. A. Keith, R. Kobayashi, J. Normand, 
 K. Raghavachari, A. P. Rendell, J. C. Burant, S. S. Iyengar, 
 J. Tomasi, M. Cossi, J. M. Millam, M. Klene, C. Adamo, R. Cammi, 
 J. W. Ochterski, R. L. Martin, K. Morokuma, O. Farkas, 
 J. B. Foresman, and D. J. Fox, Gaussian, Inc., Wallingford CT, 2019.
 
 ******************************************
 Gaussian 16:  ES64L-G16RevC.01  3-Jul-2019
                15-Feb-2024 
 ******************************************
 %chk=QL_MonoToBi_DeprotonatedLigandAttacking_IRC_forward.chk
 %mem=1600MB
 %nprocs=4
 Will use up to    4 processors via shared memory.
 ----------------------------------------------------------------------
 # irc=(forward,calcfc,maxpoints=100,maxcycle=100) wb97xd/def2tzvpp geo
 m=connectivity
 ----------------------------------------------------------------------
 1/6=100,10=4,18=10,22=1,26=3,38=1,42=100,44=3,57=2,172=1/1,23;
 2/12=2,17=6,18=5,29=1,40=1/2;
 3/5=44,7=202,11=2,25=1,30=1,71=2,74=-58,140=1/1,2,3;
 4//1;
 5/5=2,38=5/2;
 8/6=4,10=90,11=11/1;
 11/6=1,8=1,9=11,15=111,16=1/1,2,10;
 10/6=1,13=1/2;
 6/7=2,8=2,9=2,10=2,28=1/1;
 7/10=1,25=1/1,2,3,16;
 1/6=100,10=4,18=10,22=1,26=3,42=100,44=3/23(2);
 2/29=1/2;
 99/5=20/99;
 2/29=1/2;
 3/5=44,7=202,11=2,25=1,30=1,71=2,74=-58,140=1/1,2,3;
 4/5=5,16=3,69=1/1;
 5/5=2,38=5/2;
 8/6=4,10=90,11=11/1;
 11/6=1,8=1,9=11,15=111,16=1/1,2,10;
 10/6=1,13=1/2;
 7/10=1,25=1/1,2,3,16;
 1/6=100,18=10,22=1,26=3,42=100,44=3/23(-8);
 2/29=1/2;
 6/7=2,8=2,9=2,10=2,19=2,28=1/1;
 99/5=20,9=1/99;
 ----------------------------------------------------------------------
 TS opt of scan peak max corresponding to proton transfer from ethylene
  glycol to ligand
 ----------------------------------------------------------------------
 Symbolic Z-matrix:
 Charge = -1 Multiplicity = 1
 Si                    0.79793   0.02471  -0.01372 
 O                     1.06152   0.01664   1.62271 
 H                     1.98268  -0.15746   1.80147 
 O                     0.62263   1.46718  -0.73998 
 H                    -0.33698   1.63972  -0.4191 
 O                     2.26306  -0.54252  -0.60177 
 H                     2.51628  -0.04552  -1.37572 
 O                    -0.25748  -1.16554  -0.42595 
 C                    -1.60589  -1.1928   -0.00987 
 H                    -1.65122  -1.45874   1.0544 
 H                    -2.11647  -1.97355  -0.58783 
 C                    -2.25985   0.17624  -0.20306 
 H                    -2.36821   0.32955  -1.303 
 H                    -3.30141   0.09092   0.18517 
 O                    -1.52739   1.1403    0.40928 
 
 IRC-IRC-IRC-IRC-IRC-IRC-IRC-IRC-IRC-IRC-IRC-IRC-IRC-IRC-IRC-IRC-IRC-IRC
 ------------------------------------------------------------------------
 INPUT DATA FOR L123
 ------------------------------------------------------------------------
 GENERAL PARAMETERS:
 Rxn path following direction = Forward
 Maximum points per path      = 100
 Step size                    =   0.100 bohr
 Integration scheme           = HPC                                 
    Redo corrector integration= Yes                                 
    DWI Weight Power          =  2
    DWI will use Hessian update vectors when possible.
    Max correction cycles     = 100
 Initial Hessian              = CalcFC
 Hessian evaluation           = All updating
 Hessian updating method      = Bofill                              
 ------------------------------------------------------------------------
 IRC-IRC-IRC-IRC-IRC-IRC-IRC-IRC-IRC-IRC-IRC-IRC-IRC-IRC-IRC-IRC-IRC-IRC
                          Input orientation:                          
 ---------------------------------------------------------------------
 Center     Atomic      Atomic             Coordinates (Angstroms)
 Number     Number       Type             X           Y           Z
 ---------------------------------------------------------------------
      1         14           0        0.797932    0.024705   -0.013723
      2          8           0        1.061520    0.016643    1.622705
      3          1           0        1.982678   -0.157455    1.801474
      4          8           0        0.622631    1.467179   -0.739984
      5          1           0       -0.336976    1.639724   -0.419095
      6          8           0        2.263057   -0.542517   -0.601766
      7          1           0        2.516279   -0.045521   -1.375718
      8          8           0       -0.257477   -1.165535   -0.425950
      9          6           0       -1.605892   -1.192796   -0.009870
     10          1           0       -1.651216   -1.458740    1.054400
     11          1           0       -2.116474   -1.973552   -0.587826
     12          6           0       -2.259852    0.176235   -0.203063
     13          1           0       -2.368206    0.329546   -1.303004
     14          1           0       -3.301406    0.090916    0.185172
     15          8           0       -1.527388    1.140300    0.409283
 ---------------------------------------------------------------------
                    Distance matrix (angstroms):
                    1          2          3          4          5
     1  Si   0.000000
     2  O    1.657540   0.000000
     3  H    2.175258   0.954359   0.000000
     4  O    1.624474   2.806952   3.308802   0.000000
     5  H    2.015100   2.959583   3.679888   1.026444   0.000000
     6  O    1.677536   2.589329   2.449989   2.597880   3.399370
     7  H    2.193782   3.333276   3.223633   2.505658   3.449093
     8  O    1.643317   2.708189   3.316012   2.793634   2.806394
     9  C    2.694567   3.353078   4.150992   3.546103   3.130620
    10  H    3.056112   3.139851   3.931494   4.117183   3.674084
    11  H    3.579998   4.352812   5.080355   4.400509   4.031234
    12  C    3.067386   3.793469   4.704102   3.203674   2.426092
    13  H    3.432143   4.518927   5.367043   3.249047   2.573666
    14  H    4.104694   4.594251   5.531335   4.260056   3.398792
    15  O    2.613542   3.072042   3.992860   2.459725   1.533856
                    6          7          8          9         10
     6  O    0.000000
     7  H    0.954006   0.000000
     8  O    2.602336   3.138505   0.000000
     9  C    3.967615   4.491556   1.411414   0.000000
    10  H    4.347860   5.026995   2.054243   1.097930   0.000000
    11  H    4.607423   5.079417   2.033461   1.097409   1.782808
    12  C    4.596985   4.922979   2.420647   1.529455   2.150533
    13  H    4.764538   4.899404   2.731239   2.137953   3.044568
    14  H    5.655418   6.024986   3.349275   2.135586   2.424895
    15  O    4.268673   4.576422   2.761732   2.371748   2.680768
                   11         12         13         14         15
    11  H    0.000000
    12  C    2.188649   0.000000
    13  H    2.424687   1.115847   0.000000
    14  H    2.502722   1.114828   1.772703   0.000000
    15  O    3.322247   1.356795   2.072733   2.073300   0.000000
 Symmetry turned off by external request.
 Stoichiometry    C2H7O5Si(1-)
 Framework group  C1[X(C2H7O5Si)]
 Deg. of freedom    39
 Full point group                 C1      NOp   1
 Rotational constants (GHZ):           2.8198978           1.4035184           1.2734587
 Standard basis: def2TZVPP (5D, 7F)
   357 basis functions,   545 primitive gaussians,   405 cartesian basis functions
    37 alpha electrons       37 beta electrons
       nuclear repulsion energy       530.9545652058 Hartrees.
 NAtoms=   15 NActive=   15 NUniq=   15 SFac= 1.00D+00 NAtFMM=   60 NAOKFM=F Big=F
 Integral buffers will be    131072 words long.
 Raffenetti 2 integral format.
 Two-electron integral symmetry is turned off.
 Nuclear repulsion after empirical dispersion term =      530.9478644948 Hartrees.
 One-electron integrals computed using PRISM.
   1 Symmetry operations used in ECPInt.
 ECPInt:  NShTT=    8911 NPrTT=   25186 LenC2=    8644 LenP2D=   19478.
 LDataN:  DoStor=T MaxTD1= 6 Len=  172
 NBasis=   357 RedAO= T EigKep=  3.37D-04  NBF=   357
 NBsUse=   357 1.00D-06 EigRej= -1.00D+00 NBFU=   357
 ExpMin= 7.01D-02 ExpMax= 4.48D+04 ExpMxC= 1.53D+03 IAcc=3 IRadAn=         5 AccDes= 0.00D+00
 Harris functional with IExCor= 4639 and IRadAn=       5 diagonalized for initial guess.
 HarFok:  IExCor= 4639 AccDes= 0.00D+00 IRadAn=         5 IDoV= 1 UseB2=F ITyADJ=14
 ICtDFT=  3500011 ScaDFX=  1.000000  1.000000  1.000000  1.000000
 FoFCou: FMM=F IPFlag=           0 FMFlag=      100000 FMFlg1=           0
         NFxFlg=           0 DoJE=T BraDBF=F KetDBF=T FulRan=T
         wScrn=  0.000000 ICntrl=       500 IOpCl=  0 I1Cent=   200000004 NGrid=           0
         NMat0=    1 NMatS0=      1 NMatT0=    0 NMatD0=    1 NMtDS0=    0 NMtDT0=    0
 Symmetry not used in FoFCou.
 Requested convergence on RMS density matrix=1.00D-08 within 128 cycles.
 Requested convergence on MAX density matrix=1.00D-06.
 Requested convergence on             energy=1.00D-06.
 No special actions if energy rises.
 Integral accuracy reduced to 1.0D-05 until final iterations.
 Initial convergence to 1.0D-05 achieved.  Increase integral accuracy.
 SCF Done:  E(RwB97XD) =  -746.334789576     A.U. after   15 cycles
            NFock= 15  Conv=0.58D-08     -V/T= 2.0033
 DoSCS=F DFT=T ScalE2(SS,OS)=  1.000000  1.000000
 Range of M.O.s used for correlation:     1   357
 NBasis=   357 NAE=    37 NBE=    37 NFC=     0 NFV=     0
 NROrb=    357 NOA=    37 NOB=    37 NVA=   320 NVB=   320

 **** Warning!!: The largest alpha MO coefficient is  0.11205593D+02

   1 Symmetry operations used in ECPInt.
 ECPInt:  NShTT=    8911 NPrTT=   25186 LenC2=    8644 LenP2D=   19478.
 LDataN:  DoStor=T MaxTD1= 7 Len=  274
 Symmetrizing basis deriv contribution to polar:
 IMax=3 JMax=2 DiffMx= 0.00D+00
 G2DrvN: will do    16 centers at a time, making    1 passes.
 Calling FoFCou, ICntrl=  3107 FMM=F I1Cent=   0 AccDes= 0.00D+00.
 End of G2Drv F.D. properties file   721 does not exist.
 End of G2Drv F.D. properties file   722 does not exist.
 End of G2Drv F.D. properties file   788 does not exist.
          IDoAtm=111111111111111
          Differentiating once with respect to nuclear coordinates.
 CalDSu exits because no D1Ps are significant.
          There are    48 degrees of freedom in the 1st order CPHF.  IDoFFX=6 NUNeed=     0.
     42 vectors produced by pass  0 Test12= 2.47D-14 2.08D-09 XBig12= 8.28D-02 5.46D-02.
 AX will form    42 AO Fock derivatives at one time.
     42 vectors produced by pass  1 Test12= 2.47D-14 2.08D-09 XBig12= 2.44D-02 2.66D-02.
     42 vectors produced by pass  2 Test12= 2.47D-14 2.08D-09 XBig12= 7.83D-04 4.14D-03.
     42 vectors produced by pass  3 Test12= 2.47D-14 2.08D-09 XBig12= 1.45D-05 6.57D-04.
     42 vectors produced by pass  4 Test12= 2.47D-14 2.08D-09 XBig12= 1.65D-07 4.94D-05.
     42 vectors produced by pass  5 Test12= 2.47D-14 2.08D-09 XBig12= 1.72D-09 4.06D-06.
     42 vectors produced by pass  6 Test12= 2.47D-14 2.08D-09 XBig12= 1.32D-11 3.13D-07.
     20 vectors produced by pass  7 Test12= 2.47D-14 2.08D-09 XBig12= 9.29D-14 3.34D-08.
      2 vectors produced by pass  8 Test12= 2.47D-14 2.08D-09 XBig12= 6.37D-16 2.45D-09.
 InvSVY:  IOpt=1 It=  1 EMax= 1.33D-15
 Solved reduced A of dimension   316 with    42 vectors.
 End of Minotr F.D. properties file   721 does not exist.
 End of Minotr F.D. properties file   722 does not exist.
 End of Minotr F.D. properties file   788 does not exist.

 **********************************************************************

            Population analysis using the SCF Density.

 **********************************************************************

 Alpha  occ. eigenvalues --  -66.13342 -19.08394 -19.08196 -19.07666 -19.04327
 Alpha  occ. eigenvalues --  -18.98101 -10.16334 -10.13975  -5.24923  -3.59558
 Alpha  occ. eigenvalues --   -3.59400  -3.59294  -0.96810  -0.93949  -0.92897
 Alpha  occ. eigenvalues --   -0.89926  -0.85029  -0.64195  -0.52256  -0.47359
 Alpha  occ. eigenvalues --   -0.44098  -0.40908  -0.39865  -0.38475  -0.37107
 Alpha  occ. eigenvalues --   -0.31841  -0.31058  -0.29572  -0.28491  -0.26824
 Alpha  occ. eigenvalues --   -0.26363  -0.24712  -0.23700  -0.22501  -0.20078
 Alpha  occ. eigenvalues --   -0.12312  -0.12073
 Alpha virt. eigenvalues --    0.24467   0.27193   0.27800   0.30145   0.31973
 Alpha virt. eigenvalues --    0.33199   0.34887   0.35313   0.37716   0.38399
 Alpha virt. eigenvalues --    0.39573   0.41887   0.43197   0.43903   0.44552
 Alpha virt. eigenvalues --    0.47762   0.48883   0.49418   0.51988   0.55398
 Alpha virt. eigenvalues --    0.56657   0.57230   0.59196   0.60171   0.60927
 Alpha virt. eigenvalues --    0.61520   0.63149   0.64106   0.64739   0.65400
 Alpha virt. eigenvalues --    0.65966   0.67202   0.68800   0.69912   0.70516
 Alpha virt. eigenvalues --    0.71893   0.73760   0.74428   0.75382   0.75968
 Alpha virt. eigenvalues --    0.76813   0.78760   0.81237   0.83193   0.84611
 Alpha virt. eigenvalues --    0.87782   0.89488   0.90772   0.91181   0.93367
 Alpha virt. eigenvalues --    0.95547   0.96849   0.97048   0.98752   1.02093
 Alpha virt. eigenvalues --    1.03648   1.03841   1.05084   1.07763   1.08938
 Alpha virt. eigenvalues --    1.09974   1.11338   1.12072   1.15014   1.17153
 Alpha virt. eigenvalues --    1.19887   1.22010   1.23111   1.24381   1.25778
 Alpha virt. eigenvalues --    1.27791   1.29792   1.31272   1.32801   1.34744
 Alpha virt. eigenvalues --    1.36123   1.36563   1.38196   1.39118   1.42108
 Alpha virt. eigenvalues --    1.44463   1.44636   1.46679   1.47260   1.49789
 Alpha virt. eigenvalues --    1.50403   1.54197   1.54905   1.59536   1.60662
 Alpha virt. eigenvalues --    1.61773   1.64284   1.65463   1.69136   1.70692
 Alpha virt. eigenvalues --    1.71989   1.73317   1.75077   1.77480   1.79591
 Alpha virt. eigenvalues --    1.80854   1.84769   1.88874   1.92673   1.96035
 Alpha virt. eigenvalues --    1.99843   2.00727   2.04504   2.05885   2.08133
 Alpha virt. eigenvalues --    2.10382   2.13493   2.15898   2.18060   2.19474
 Alpha virt. eigenvalues --    2.20209   2.21901   2.25799   2.26693   2.28735
 Alpha virt. eigenvalues --    2.31404   2.32677   2.35131   2.36312   2.39206
 Alpha virt. eigenvalues --    2.40209   2.42814   2.44302   2.46552   2.48529
 Alpha virt. eigenvalues --    2.52423   2.56968   2.59256   2.62522   2.65640
 Alpha virt. eigenvalues --    2.69664   2.74325   2.75726   2.78373   2.84180
 Alpha virt. eigenvalues --    2.86957   2.87966   2.90911   2.96418   3.00527
 Alpha virt. eigenvalues --    3.00959   3.03682   3.06939   3.08124   3.11308
 Alpha virt. eigenvalues --    3.14428   3.16343   3.16906   3.20593   3.21492
 Alpha virt. eigenvalues --    3.23814   3.24312   3.25567   3.30376   3.32847
 Alpha virt. eigenvalues --    3.33394   3.33595   3.36572   3.39339   3.40551
 Alpha virt. eigenvalues --    3.42723   3.45055   3.47776   3.49517   3.52254
 Alpha virt. eigenvalues --    3.53746   3.54912   3.55998   3.58358   3.60745
 Alpha virt. eigenvalues --    3.62199   3.64403   3.65027   3.71025   3.72168
 Alpha virt. eigenvalues --    3.74010   3.77225   3.81101   3.83215   3.85368
 Alpha virt. eigenvalues --    3.86525   3.88577   3.90605   3.91477   3.93551
 Alpha virt. eigenvalues --    3.95930   3.96390   3.98943   4.01191   4.04258
 Alpha virt. eigenvalues --    4.06092   4.07392   4.12268   4.16018   4.17485
 Alpha virt. eigenvalues --    4.18278   4.20633   4.25321   4.25976   4.26402
 Alpha virt. eigenvalues --    4.27917   4.29660   4.30127   4.31936   4.36795
 Alpha virt. eigenvalues --    4.37833   4.41011   4.43646   4.44968   4.48149
 Alpha virt. eigenvalues --    4.50009   4.51383   4.54531   4.56322   4.59110
 Alpha virt. eigenvalues --    4.62365   4.68487   4.71344   4.75605   4.84374
 Alpha virt. eigenvalues --    4.87705   4.89215   4.92210   4.95352   5.00718
 Alpha virt. eigenvalues --    5.02595   5.06193   5.10059   5.12079   5.13957
 Alpha virt. eigenvalues --    5.16043   5.17474   5.20668   5.24779   5.26400
 Alpha virt. eigenvalues --    5.30540   5.35119   5.40060   5.44322   5.45078
 Alpha virt. eigenvalues --    5.49785   5.51175   5.54361   5.57238   5.58961
 Alpha virt. eigenvalues --    5.59218   5.60626   5.63489   5.65797   5.67575
 Alpha virt. eigenvalues --    5.71817   5.72037   5.74695   5.75560   5.76788
 Alpha virt. eigenvalues --    5.81904   5.84170   5.87065   5.87763   5.96012
 Alpha virt. eigenvalues --    5.99169   6.00758   6.04697   6.11297   6.20475
 Alpha virt. eigenvalues --    6.29358   6.34128   6.40849   6.47856   6.49829
 Alpha virt. eigenvalues --    6.63391   6.68454   6.69154   6.75703   6.80915
 Alpha virt. eigenvalues --    6.82867   6.83747   6.84644   6.86074   6.87828
 Alpha virt. eigenvalues --    6.88757   6.90584   6.91924   6.93473   6.95410
 Alpha virt. eigenvalues --    6.96476   6.98699   7.02925   7.04868   7.07210
 Alpha virt. eigenvalues --    7.12973   7.22013   7.25332   7.26105   7.32056
 Alpha virt. eigenvalues --    7.36358   7.39840   7.44852   7.48856   7.51524
 Alpha virt. eigenvalues --    7.52954   7.57630   7.64347   7.74204   7.82028
 Alpha virt. eigenvalues --    7.92625   7.98940  12.48243  23.56712  23.71104
 Alpha virt. eigenvalues --   43.98754  44.04824  44.15695  44.31348  44.41297
          Condensed to atoms (all electrons):
               1          2          3          4          5          6
     1  Si  11.495602   0.434369  -0.026648   0.470667  -0.049846   0.443791
     2  O    0.434369   7.751599   0.312536  -0.023952   0.001207  -0.040494
     3  H   -0.026648   0.312536   0.564807  -0.000508  -0.000707   0.000671
     4  O    0.470667  -0.023952  -0.000508   7.977862   0.284566  -0.043779
     5  H   -0.049846   0.001207  -0.000707   0.284566   0.396760   0.001575
     6  O    0.443791  -0.040494   0.000671  -0.043779   0.001575   7.852993
     7  H   -0.026880   0.001941  -0.000347   0.002237  -0.000587   0.325286
     8  O    0.429554  -0.025031   0.000744  -0.023726  -0.000968  -0.032890
     9  C   -0.110503  -0.006271  -0.000518  -0.007178   0.022474  -0.000983
    10  H    0.003296   0.004582   0.000397   0.000075  -0.002403  -0.000079
    11  H    0.008240  -0.000248   0.000089  -0.000234  -0.001323  -0.000062
    12  C   -0.004392  -0.001081  -0.000001   0.015512  -0.013418  -0.000815
    13  H    0.022927  -0.000216   0.000057   0.006823  -0.023508  -0.000096
    14  H    0.000125   0.000191   0.000031  -0.001691   0.003880  -0.000008
    15  O    0.103483  -0.006987   0.001609  -0.109466   0.129283  -0.000223
               7          8          9         10         11         12
     1  Si  -0.026880   0.429554  -0.110503   0.003296   0.008240  -0.004392
     2  O    0.001941  -0.025031  -0.006271   0.004582  -0.000248  -0.001081
     3  H   -0.000347   0.000744  -0.000518   0.000397   0.000089  -0.000001
     4  O    0.002237  -0.023726  -0.007178   0.000075  -0.000234   0.015512
     5  H   -0.000587  -0.000968   0.022474  -0.002403  -0.001323  -0.013418
     6  O    0.325286  -0.032890  -0.000983  -0.000079  -0.000062  -0.000815
     7  H    0.533164  -0.000055  -0.000395  -0.000017   0.000034   0.000015
     8  O   -0.000055   7.921090   0.295722  -0.052402  -0.042036  -0.070438
     9  C   -0.000395   0.295722   5.094828   0.379055   0.317397   0.242907
    10  H   -0.000017  -0.052402   0.379055   0.718188  -0.052636  -0.044480
    11  H    0.000034  -0.042036   0.317397  -0.052636   0.742967  -0.009410
    12  C    0.000015  -0.070438   0.242907  -0.044480  -0.009410   4.670013
    13  H    0.000038   0.002776  -0.137986   0.021601   0.000008   0.416300
    14  H   -0.000002   0.007286  -0.040674  -0.014559   0.012685   0.310104
    15  O    0.000063  -0.007766  -0.155318   0.011381   0.011555   0.403283
              13         14         15
     1  Si   0.022927   0.000125   0.103483
     2  O   -0.000216   0.000191  -0.006987
     3  H    0.000057   0.000031   0.001609
     4  O    0.006823  -0.001691  -0.109466
     5  H   -0.023508   0.003880   0.129283
     6  O   -0.000096  -0.000008  -0.000223
     7  H    0.000038  -0.000002   0.000063
     8  O    0.002776   0.007286  -0.007766
     9  C   -0.137986  -0.040674  -0.155318
    10  H    0.021601  -0.014559   0.011381
    11  H    0.000008   0.012685   0.011555
    12  C    0.416300   0.310104   0.403283
    13  H    0.900235  -0.098475  -0.084081
    14  H   -0.098475   0.892323  -0.039274
    15  O   -0.084081  -0.039274   8.434849
 Mulliken charges:
               1
     1  Si   0.806215
     2  O   -0.402146
     3  H    0.147787
     4  O   -0.547208
     5  H    0.253014
     6  O   -0.504887
     7  H    0.165505
     8  O   -0.401859
     9  C    0.107443
    10  H    0.028000
    11  H    0.012973
    12  C    0.085901
    13  H   -0.026405
    14  H   -0.031944
    15  O   -0.692391
 Sum of Mulliken charges =  -1.00000
 Mulliken charges with hydrogens summed into heavy atoms:
               1
     1  Si   0.806215
     2  O   -0.254358
     4  O   -0.294194
     6  O   -0.339382
     8  O   -0.401859
     9  C    0.148417
    12  C    0.027552
    15  O   -0.692391
 APT charges:
               1
     1  Si   0.385861
     2  O   -0.750426
     3  H    0.589177
     4  O   -0.461358
     5  H    0.253823
     6  O   -0.678747
     7  H    0.524290
     8  O   -0.376594
     9  C   -0.463734
    10  H    0.266260
    11  H    0.392885
    12  C   -0.672428
    13  H    0.207226
    14  H    0.372714
    15  O   -0.588948
 Sum of APT charges =  -1.00000
 APT charges with hydrogens summed into heavy atoms:
               1
     1  Si   0.385861
     2  O   -0.161249
     4  O   -0.207536
     6  O   -0.154457
     8  O   -0.376594
     9  C    0.195411
    12  C   -0.092488
    15  O   -0.588948
 Electronic spatial extent (au):  <R**2>=           1070.6055
 Charge=             -1.0000 electrons
 Dipole moment (field-independent basis, Debye):
    X=              2.1897    Y=             -2.4261    Z=             -0.7839  Tot=              3.3609
 Quadrupole moment (field-independent basis, Debye-Ang):
   XX=            -65.1960   YY=            -67.6149   ZZ=            -59.6914
   XY=              5.3482   XZ=              2.4257   YZ=             -2.1901
 Traceless Quadrupole moment (field-independent basis, Debye-Ang):
   XX=             -1.0285   YY=             -3.4475   ZZ=              4.4760
   XY=              5.3482   XZ=              2.4257   YZ=             -2.1901
 Octapole moment (field-independent basis, Debye-Ang**2):
  XXX=             35.1681  YYY=             -3.8651  ZZZ=             -5.7214  XYY=              4.9467
  XXY=             -2.0587  XXZ=              1.3364  XZZ=             15.6818  YZZ=             -3.2081
  YYZ=              3.9282  XYZ=              1.7295
 Hexadecapole moment (field-independent basis, Debye-Ang**3):
 XXXX=           -882.8682 YYYY=           -351.6323 ZZZZ=           -236.5836 XXXY=             26.9550
 XXXZ=              1.9641 YYYX=             -3.0907 YYYZ=              1.2202 ZZZX=             -7.0735
 ZZZY=             -1.2908 XXYY=           -216.6524 XXZZ=           -151.3382 YYZZ=           -100.6220
 XXYZ=            -11.0156 YYXZ=             10.7138 ZZXY=             -1.7243
 N-N= 5.309478644948D+02 E-N=-2.843287143095D+03  KE= 7.438563926582D+02
  Exact polarizability:       0.000       0.000       0.000       0.000       0.000       0.000
 Approx polarizability:      77.783       2.759      69.306      -0.494      -0.280      69.853
   1 Symmetry operations used in ECPInt.
 ECPInt:  NShTT=    8911 NPrTT=   25186 LenC2=    8644 LenP2D=   19478.
 LDataN:  DoStor=T MaxTD1= 8 Len=  415
 Calling FoFJK, ICntrl=    100127 FMM=F ISym2X=0 I1Cent= 0 IOpClX= 0 NMat=1 NMatS=1 NMatT=0.
 -------------------------------------------------------------------
 Center     Atomic                   Forces (Hartrees/Bohr)
 Number     Number              X              Y              Z
 -------------------------------------------------------------------
      1       14           0.000002116   -0.000001564    0.000001609
      2        8          -0.000001080    0.000000516   -0.000000150
      3        1           0.000000752   -0.000000577   -0.000000152
      4        8          -0.000014718    0.000003232    0.000007110
      5        1           0.000008220   -0.000005770    0.000001260
      6        8           0.000000523   -0.000002032    0.000000153
      7        1          -0.000000692   -0.000001786    0.000000861
      8        8          -0.000002720    0.000002656   -0.000011201
      9        6           0.000002584    0.000001343    0.000008343
     10        1          -0.000000549    0.000000591   -0.000000385
     11        1          -0.000001133    0.000000078    0.000000596
     12        6          -0.000000592   -0.000002603    0.000000625
     13        1          -0.000000095    0.000000619    0.000000375
     14        1           0.000000567    0.000001413    0.000000434
     15        8           0.000006818    0.000003885   -0.000009476
 -------------------------------------------------------------------
 Cartesian Forces:  Max     0.000014718 RMS     0.000004172
 IRC-IRC-IRC-IRC-IRC-IRC-IRC-IRC-IRC-IRC-IRC-IRC-IRC-IRC-IRC-IRC-IRC-IRC
          ******** Start new reaction path calculation ********
 Supplied step size of   0.1000 bohr.
    Integration on MW PES will use step size of   0.2544 sqrt(amu)*bohr.
 Point Number:   0          Path Number:   1
 Calculating another point on the path.
 IRC-IRC-IRC-IRC-IRC-IRC-IRC-IRC-IRC-IRC-IRC-IRC-IRC-IRC-IRC-IRC-IRC-IRC
                          Input orientation:                          
 ---------------------------------------------------------------------
 Center     Atomic      Atomic             Coordinates (Angstroms)
 Number     Number       Type             X           Y           Z
 ---------------------------------------------------------------------
      1         14           0        0.769476    0.009601   -0.019845
      2          8           0        1.028364    0.000131    1.617275
      3          1           0        1.950376   -0.162648    1.801940
      4          8           0        0.573922    1.451523   -0.735215
      5          1           0       -0.394528    1.608753   -0.404401
      6          8           0        2.232242   -0.554885   -0.610676
      7          1           0        2.481642   -0.060445   -1.387564
      8          8           0       -0.292991   -1.175586   -0.426917
      9          6           0       -1.641742   -1.198962   -0.010526
     10          1           0       -1.687003   -1.458135    1.055408
     11          1           0       -2.152180   -1.983679   -0.583353
     12          6           0       -2.299991    0.167068   -0.213066
     13          1           0       -2.402122    0.314740   -1.314219
     14          1           0       -3.343534    0.076438    0.168581
     15          8           0       -1.580666    1.141099    0.399806
 ---------------------------------------------------------------------
                    Distance matrix (angstroms):
                    1          2          3          4          5
     1  Si   0.000000
     2  O    1.657490   0.000000
     3  H    2.177864   0.954308   0.000000
     4  O    1.621461   2.801297   3.307163   0.000000
     5  H    2.014963   2.949484   3.674829   1.035401   0.000000
     6  O    1.675533   2.592515   2.460491   2.605995   3.409369
     7  H    2.192503   3.338374   3.235061   2.520119   3.467734
     8  O    1.642928   2.703149   3.320624   2.783575   2.786280
     9  C    2.697163   3.349183   4.154791   3.529790   3.097409
    10  H    3.056911   3.132962   3.932698   4.096855   3.634189
    11  H    3.581449   4.346737   5.082985   4.388087   4.003365
    12  C    3.079571   3.802099   4.715355   3.190900   2.397051
    13  H    3.439120   4.523369   5.374251   3.237956   2.555909
    14  H    4.117867   4.606303   5.545314   4.249020   3.372378
    15  O    2.641886   3.096946   4.016714   2.454971   1.507438
                    6          7          8          9         10
     6  O    0.000000
     7  H    0.954058   0.000000
     8  O    2.606883   3.140855   0.000000
     9  C    3.972753   4.493857   1.411757   0.000000
    10  H    4.353410   5.029835   2.054359   1.097923   0.000000
    11  H    4.611437   5.081130   2.033241   1.097478   1.782730
    12  C    4.606565   4.929018   2.424149   1.529821   2.150829
    13  H    4.767447   4.898703   2.730716   2.137542   3.044604
    14  H    5.665253   6.031003   3.350820   2.134203   2.426000
    15  O    4.293681   4.597906   2.776437   2.376550   2.682749
                   11         12         13         14         15
    11  H    0.000000
    12  C    2.187389   0.000000
    13  H    2.424741   1.115696   0.000000
    14  H    2.495759   1.114832   1.772496   0.000000
    15  O    3.325277   1.357121   2.072568   2.072359   0.000000
 Symmetry turned off by external request.
 Stoichiometry    C2H7O5Si(1-)
 Framework group  C1[X(C2H7O5Si)]
 Deg. of freedom    39
 Full point group                 C1      NOp   1
 Rotational constants (GHZ):           2.8253879           1.3974960           1.2681409
 Standard basis: def2TZVPP (5D, 7F)
   357 basis functions,   545 primitive gaussians,   405 cartesian basis functions
    37 alpha electrons       37 beta electrons
       nuclear repulsion energy       530.6060201610 Hartrees.
 NAtoms=   15 NActive=   15 NUniq=   15 SFac= 1.00D+00 NAtFMM=   60 NAOKFM=F Big=F
 Integral buffers will be    131072 words long.
 Raffenetti 2 integral format.
 Two-electron integral symmetry is turned off.
 Nuclear repulsion after empirical dispersion term =      530.5993054758 Hartrees.
 One-electron integrals computed using PRISM.
   1 Symmetry operations used in ECPInt.
 ECPInt:  NShTT=    8911 NPrTT=   25186 LenC2=    8644 LenP2D=   19473.
 LDataN:  DoStor=T MaxTD1= 6 Len=  172
 NBasis=   357 RedAO= T EigKep=  3.36D-04  NBF=   357
 NBsUse=   357 1.00D-06 EigRej= -1.00D+00 NBFU=   357
 Initial guess from the checkpoint file:  "QL_MonoToBi_DeprotonatedLigandAttacking_IRC_forward.chk"
 B after Tr=    -0.070881   -0.021322   -0.008512
         Rot=    1.000000    0.000097    0.000004   -0.000052 Ang=   0.01 deg.
 ExpMin= 7.01D-02 ExpMax= 4.48D+04 ExpMxC= 1.53D+03 IAcc=3 IRadAn=         5 AccDes= 0.00D+00
 Harris functional with IExCor= 4639 and IRadAn=       5 diagonalized for initial guess.
 HarFok:  IExCor= 4639 AccDes= 0.00D+00 IRadAn=         5 IDoV= 1 UseB2=F ITyADJ=14
 ICtDFT=  3500011 ScaDFX=  1.000000  1.000000  1.000000  1.000000
 FoFCou: FMM=F IPFlag=           0 FMFlag=      100000 FMFlg1=           0
         NFxFlg=           0 DoJE=T BraDBF=F KetDBF=T FulRan=T
         wScrn=  0.000000 ICntrl=       500 IOpCl=  0 I1Cent=   200000004 NGrid=           0
         NMat0=    1 NMatS0=      1 NMatT0=    0 NMatD0=    1 NMtDS0=    0 NMtDT0=    0
 Symmetry not used in FoFCou.
 Requested convergence on RMS density matrix=1.00D-08 within 128 cycles.
 Requested convergence on MAX density matrix=1.00D-06.
 Requested convergence on             energy=1.00D-06.
 No special actions if energy rises.
 Integral accuracy reduced to 1.0D-05 until final iterations.
 Initial convergence to 1.0D-05 achieved.  Increase integral accuracy.
 SCF Done:  E(RwB97XD) =  -746.334826896     A.U. after   11 cycles
            NFock= 11  Conv=0.52D-08     -V/T= 2.0033
 DoSCS=F DFT=T ScalE2(SS,OS)=  1.000000  1.000000
 Range of M.O.s used for correlation:     1   357
 NBasis=   357 NAE=    37 NBE=    37 NFC=     0 NFV=     0
 NROrb=    357 NOA=    37 NOB=    37 NVA=   320 NVB=   320

 **** Warning!!: The largest alpha MO coefficient is  0.11373473D+02

 Symmetrizing basis deriv contribution to polar:
 IMax=3 JMax=2 DiffMx= 0.00D+00
   1 Symmetry operations used in ECPInt.
 ECPInt:  NShTT=    8911 NPrTT=   25186 LenC2=    8644 LenP2D=   19473.
 LDataN:  DoStor=T MaxTD1= 7 Len=  274
 Calling FoFJK, ICntrl=      2127 FMM=F ISym2X=0 I1Cent= 0 IOpClX= 0 NMat=1 NMatS=1 NMatT=0.
 -------------------------------------------------------------------
 Center     Atomic                   Forces (Hartrees/Bohr)
 Number     Number              X              Y              Z
 -------------------------------------------------------------------
      1       14           0.000444096   -0.000087388   -0.000122345
      2        8           0.000258261   -0.000213097    0.000001037
      3        1          -0.000073998    0.000031726   -0.000003669
      4        8          -0.000256301   -0.000296063    0.000345351
      5        1          -0.000215997    0.000028396    0.000092972
      6        8           0.000250155   -0.000039999   -0.000169055
      7        1          -0.000000185   -0.000016987   -0.000000232
      8        8           0.000050306    0.000011216    0.000114448
      9        6           0.000061964    0.000142089    0.000112213
     10        1           0.000002320    0.000029712   -0.000001562
     11        1           0.000004960    0.000013740    0.000027831
     12        6          -0.000077238    0.000031314   -0.000133518
     13        1           0.000019487    0.000001653    0.000013573
     14        1           0.000034013    0.000007406   -0.000027536
     15        8          -0.000501844    0.000356282   -0.000249509
 -------------------------------------------------------------------
 Cartesian Forces:  Max     0.000501844 RMS     0.000168839
 IRC-IRC-IRC-IRC-IRC-IRC-IRC-IRC-IRC-IRC-IRC-IRC-IRC-IRC-IRC-IRC-IRC-IRC
 Pt  1 Step number   1 out of a maximum of 100
 Modified Bulirsch-Stoer Extrapolation Cycles:
    EPS =    0.000010000000000
      PEZero:  N= 2 I= 1 D=  6.63D-04 Err=  1.18D-02
      PEZero:  N= 3 I= 2 D=  6.63D-04 Err=  1.81D-02
      PEZero:  N= 3 I= 1 D=  1.33D-03 Err=  1.54D-02
      PEZero:  N= 4 I= 3 D=  3.31D-04 Err=  3.13D-02
      PEZero:  N= 4 I= 2 D=  9.94D-04 Err=  2.36D-02
      PEZero:  N= 4 I= 1 D=  1.66D-03 Err=  1.91D-02
      PEZero:  N= 5 I= 4 D=  3.31D-04 Err=  3.40D-02
      PEZero:  N= 5 I= 3 D=  6.63D-04 Err=  1.97D-02
      PEZero:  N= 5 I= 2 D=  1.33D-03 Err=  7.93D-03
      PEZero:  N= 5 I= 1 D=  1.99D-03 Err=  1.57D-03
      PEZero:  N= 6 I= 5 D=  1.66D-04 Err=  9.02D-03
      PEZero:  N= 6 I= 4 D=  4.97D-04 Err=  2.20D-02
      PEZero:  N= 7 I= 6 D=  1.66D-04 Err=  1.88D-04
      PEZero:  N= 7 I= 5 D=  3.31D-04 Err=  8.73D-03
      PEZero:  N= 8 I= 7 D=  8.28D-05 Err=  1.16D-04
      PEZero:  N= 8 I= 6 D=  2.48D-04 Err=  3.34D-05
      PEZero:  N= 8 I= 5 D=  4.14D-04 Err=  1.19D-02
      PEZero:  N= 9 I= 8 D=  8.28D-05 Err=  7.68D-05
      PEZero:  N= 9 I= 7 D=  1.66D-04 Err=  1.07D-06
      PEZero:  N= 9 I= 6 D=  3.31D-04 Err=  1.56D-05
 Maximum DWI energy   std dev =  0.000000084 at pt     3
 Maximum DWI gradient std dev =  0.384528292 at pt    11
 CORRECTOR INTEGRATION CONVERGENCE:
   Recorrection delta-x convergence threshold:    0.010000
   Delta-x Convergence Met
 Point Number:   1          Path Number:   1
   CHANGE IN THE REACTION COORDINATE =    0.25427
   NET REACTION COORDINATE UP TO THIS POINT =    0.25427
  # OF POINTS ALONG THE PATH =   1
  # OF STEPS =   1

 Calculating another point on the path.
 IRC-IRC-IRC-IRC-IRC-IRC-IRC-IRC-IRC-IRC-IRC-IRC-IRC-IRC-IRC-IRC-IRC-IRC
                          Input orientation:                          
 ---------------------------------------------------------------------
 Center     Atomic      Atomic             Coordinates (Angstroms)
 Number     Number       Type             X           Y           Z
 ---------------------------------------------------------------------
      1         14           0        0.778107    0.006156   -0.021377
      2          8           0        1.032784   -0.005469    1.616504
      3          1           0        1.955621   -0.156581    1.806615
      4          8           0        0.561801    1.447059   -0.725367
      5          1           0       -0.416934    1.588070   -0.383702
      6          8           0        2.238634   -0.555875   -0.615035
      7          1           0        2.484216   -0.063775   -1.394680
      8          8           0       -0.291018   -1.174719   -0.423209
      9          6           0       -1.639889   -1.194008   -0.006317
     10          1           0       -1.685092   -1.445936    1.061370
     11          1           0       -2.150505   -1.982779   -0.573533
     12          6           0       -2.302243    0.168888   -0.218672
     13          1           0       -2.398177    0.310893   -1.320853
     14          1           0       -3.347382    0.073916    0.156946
     15          8           0       -1.595490    1.152918    0.394154
 ---------------------------------------------------------------------
                    Distance matrix (angstroms):
                    1          2          3          4          5
     1  Si   0.000000
     2  O    1.657603   0.000000
     3  H    2.180499   0.954257   0.000000
     4  O    1.618207   2.795715   3.305348   0.000000
     5  H    2.015405   2.939706   3.670192   1.046203   0.000000
     6  O    1.673752   2.595532   2.470611   2.614514   3.420826
     7  H    2.191269   3.343244   3.245968   2.535011   3.488171
     8  O    1.642852   2.698153   3.325073   2.773504   2.765940
     9  C    2.699505   3.345049   4.158206   3.512792   3.062352
    10  H    3.057492   3.125695   3.933525   4.075583   3.591887
    11  H    3.582946   4.340431   5.085310   4.375323   3.973949
    12  C    3.090949   3.810601   4.726217   3.176982   2.365525
    13  H    3.445328   4.527653   5.380999   3.225981   2.536683
    14  H    4.129897   4.617625   5.558451   4.236237   3.342527
    15  O    2.668650   3.121510   4.039830   2.448214   1.477638
                    6          7          8          9         10
     6  O    0.000000
     7  H    0.954107   0.000000
     8  O    2.611303   3.143227   0.000000
     9  C    3.977523   4.495912   1.411958   0.000000
    10  H    4.358689   5.032463   2.054502   1.097937   0.000000
    11  H    4.615443   5.083060   2.033040   1.097552   1.782615
    12  C    4.615404   4.934300   2.427374   1.530128   2.151055
    13  H    4.769642   4.897305   2.730005   2.137225   3.044655
    14  H    5.674166   6.036061   3.352168   2.133030   2.427167
    15  O    4.317284   4.617821   2.790632   2.381262   2.684632
                   11         12         13         14         15
    11  H    0.000000
    12  C    2.186005   0.000000
    13  H    2.425028   1.115424   0.000000
    14  H    2.489198   1.114640   1.772296   0.000000
    15  O    3.328220   1.357708   2.072332   2.071143   0.000000
 Symmetry turned off by external request.
 Stoichiometry    C2H7O5Si(1-)
 Framework group  C1[X(C2H7O5Si)]
 Deg. of freedom    39
 Full point group                 C1      NOp   1
 Rotational constants (GHZ):           2.8312777           1.3919430           1.2632188
 Standard basis: def2TZVPP (5D, 7F)
   357 basis functions,   545 primitive gaussians,   405 cartesian basis functions
    37 alpha electrons       37 beta electrons
       nuclear repulsion energy       530.3088510052 Hartrees.
 NAtoms=   15 NActive=   15 NUniq=   15 SFac= 1.00D+00 NAtFMM=   60 NAOKFM=F Big=F
 Integral buffers will be    131072 words long.
 Raffenetti 2 integral format.
 Two-electron integral symmetry is turned off.
 Nuclear repulsion after empirical dispersion term =      530.3021230165 Hartrees.
 One-electron integrals computed using PRISM.
   1 Symmetry operations used in ECPInt.
 ECPInt:  NShTT=    8911 NPrTT=   25186 LenC2=    8644 LenP2D=   19464.
 LDataN:  DoStor=T MaxTD1= 6 Len=  172
 NBasis=   357 RedAO= T EigKep=  3.35D-04  NBF=   357
 NBsUse=   357 1.00D-06 EigRej= -1.00D+00 NBFU=   357
 Initial guess from the checkpoint file:  "QL_MonoToBi_DeprotonatedLigandAttacking_IRC_forward.chk"
 B after Tr=    -0.000153   -0.000134    0.000205
         Rot=    1.000000    0.000100   -0.000008   -0.000090 Ang=   0.02 deg.
 ExpMin= 7.01D-02 ExpMax= 4.48D+04 ExpMxC= 1.53D+03 IAcc=3 IRadAn=         5 AccDes= 0.00D+00
 Harris functional with IExCor= 4639 and IRadAn=       5 diagonalized for initial guess.
 HarFok:  IExCor= 4639 AccDes= 0.00D+00 IRadAn=         5 IDoV= 1 UseB2=F ITyADJ=14
 ICtDFT=  3500011 ScaDFX=  1.000000  1.000000  1.000000  1.000000
 FoFCou: FMM=F IPFlag=           0 FMFlag=      100000 FMFlg1=           0
         NFxFlg=           0 DoJE=T BraDBF=F KetDBF=T FulRan=T
         wScrn=  0.000000 ICntrl=       500 IOpCl=  0 I1Cent=   200000004 NGrid=           0
         NMat0=    1 NMatS0=      1 NMatT0=    0 NMatD0=    1 NMtDS0=    0 NMtDT0=    0
 Symmetry not used in FoFCou.
 Requested convergence on RMS density matrix=1.00D-08 within 128 cycles.
 Requested convergence on MAX density matrix=1.00D-06.
 Requested convergence on             energy=1.00D-06.
 No special actions if energy rises.
 Integral accuracy reduced to 1.0D-05 until final iterations.
 Initial convergence to 1.0D-05 achieved.  Increase integral accuracy.
 SCF Done:  E(RwB97XD) =  -746.334939381     A.U. after   11 cycles
            NFock= 11  Conv=0.54D-08     -V/T= 2.0033
 DoSCS=F DFT=T ScalE2(SS,OS)=  1.000000  1.000000
 Range of M.O.s used for correlation:     1   357
 NBasis=   357 NAE=    37 NBE=    37 NFC=     0 NFV=     0
 NROrb=    357 NOA=    37 NOB=    37 NVA=   320 NVB=   320

 **** Warning!!: The largest alpha MO coefficient is  0.11510617D+02

 Symmetrizing basis deriv contribution to polar:
 IMax=3 JMax=2 DiffMx= 0.00D+00
   1 Symmetry operations used in ECPInt.
 ECPInt:  NShTT=    8911 NPrTT=   25186 LenC2=    8644 LenP2D=   19464.
 LDataN:  DoStor=T MaxTD1= 7 Len=  274
 Calling FoFJK, ICntrl=      2127 FMM=F ISym2X=0 I1Cent= 0 IOpClX= 0 NMat=1 NMatS=1 NMatT=0.
 -------------------------------------------------------------------
 Center     Atomic                   Forces (Hartrees/Bohr)
 Number     Number              X              Y              Z
 -------------------------------------------------------------------
      1       14           0.000901660   -0.000189094   -0.000276520
      2        8           0.000517354   -0.000436815    0.000005308
      3        1          -0.000150535    0.000064362   -0.000006896
      4        8          -0.000340419   -0.000645013    0.000642697
      5        1          -0.000589451    0.000121546    0.000214787
      6        8           0.000475256   -0.000079783   -0.000333490
      7        1          -0.000001296   -0.000026002   -0.000000700
      8        8           0.000089437    0.000016430    0.000259634
      9        6           0.000121955    0.000280514    0.000209298
     10        1           0.000005640    0.000055649   -0.000006592
     11        1           0.000013386    0.000030831    0.000054555
     12        6          -0.000133214    0.000052316   -0.000273447
     13        1           0.000038013    0.000002029    0.000027544
     14        1           0.000063427    0.000015618   -0.000049528
     15        8          -0.001011214    0.000737411   -0.000466651
 -------------------------------------------------------------------
 Cartesian Forces:  Max     0.001011214 RMS     0.000340478
 IRC-IRC-IRC-IRC-IRC-IRC-IRC-IRC-IRC-IRC-IRC-IRC-IRC-IRC-IRC-IRC-IRC-IRC
 Pt  2 Step number   1 out of a maximum of 100
 Modified Bulirsch-Stoer Extrapolation Cycles:
    EPS =    0.000010000000000
      PEZero:  N= 2 I= 1 D=  1.32D-03 Err=  1.84D-02
      PEZero:  N= 3 I= 2 D=  1.32D-03 Err=  3.30D-02
      PEZero:  N= 3 I= 1 D=  2.65D-03 Err=  3.12D-02
      PEZero:  N= 4 I= 3 D=  6.62D-04 Err=  5.97D-02
      PEZero:  N= 4 I= 2 D=  1.99D-03 Err=  4.65D-02
      PEZero:  N= 4 I= 1 D=  3.31D-03 Err=  3.71D-02
      PEZero:  N= 5 I= 4 D=  6.62D-04 Err=  5.64D-02
      PEZero:  N= 5 I= 3 D=  1.32D-03 Err=  2.50D-02
      PEZero:  N= 5 I= 2 D=  2.65D-03 Err=  4.20D-03
      PEZero:  N= 5 I= 1 D=  3.97D-03 Err=  1.06D-02
      PEZero:  N= 6 I= 5 D=  3.31D-04 Err=  6.12D-03
      PEZero:  N= 6 I= 4 D=  9.93D-04 Err=  4.83D-02
      PEZero:  N= 7 I= 6 D=  3.31D-04 Err=  4.72D-06
      PEZero:  N= 7 I= 5 D=  6.62D-04 Err=  6.13D-03
 Maximum DWI energy   std dev =  0.000000583 at pt   125
 Maximum DWI gradient std dev =  0.353756658 at pt   143
 CORRECTOR INTEGRATION CONVERGENCE:
   Recorrection delta-x convergence threshold:    0.010000
   Delta-x Convergence Met
 Point Number:   2          Path Number:   1
   CHANGE IN THE REACTION COORDINATE =    0.25424
   NET REACTION COORDINATE UP TO THIS POINT =    0.50850
  # OF POINTS ALONG THE PATH =   2
  # OF STEPS =   1

 Calculating another point on the path.
 IRC-IRC-IRC-IRC-IRC-IRC-IRC-IRC-IRC-IRC-IRC-IRC-IRC-IRC-IRC-IRC-IRC-IRC
                          Input orientation:                          
 ---------------------------------------------------------------------
 Center     Atomic      Atomic             Coordinates (Angstroms)
 Number     Number       Type             X           Y           Z
 ---------------------------------------------------------------------
      1         14           0        0.786414    0.003100   -0.023045
      2          8           0        1.037182   -0.011259    1.615774
      3          1           0        1.960834   -0.149450    1.811141
      4          8           0        0.548993    1.442221   -0.715148
      5          1           0       -0.442609    1.566299   -0.360853
      6          8           0        2.244758   -0.557099   -0.619369
      7          1           0        2.486846   -0.066604   -1.401149
      8          8           0       -0.289159   -1.174151   -0.419381
      9          6           0       -1.637924   -1.188958   -0.002122
     10          1           0       -1.683374   -1.433668    1.067244
     11          1           0       -2.149194   -1.981426   -0.563648
     12          6           0       -2.303948    0.170792   -0.224309
     13          1           0       -2.393709    0.307524   -1.327183
     14          1           0       -3.350146    0.072647    0.145980
     15          8           0       -1.609110    1.164810    0.388074
 ---------------------------------------------------------------------
                    Distance matrix (angstroms):
                    1          2          3          4          5
     1  Si   0.000000
     2  O    1.657955   0.000000
     3  H    2.183294   0.954148   0.000000
     4  O    1.614448   2.790005   3.302855   0.000000
     5  H    2.016978   2.930106   3.665773   1.060281   0.000000
     6  O    1.672182   2.598469   2.480760   2.623370   3.434762
     7  H    2.189863   3.347598   3.256127   2.549984   3.511451
     8  O    1.643125   2.693205   3.329822   2.763219   2.745366
     9  C    2.701640   3.340771   4.161678   3.494870   3.024716
    10  H    3.058248   3.118581   3.934825   4.053532   3.546654
    11  H    3.584465   4.334100   5.088034   4.361711   3.942069
    12  C    3.101446   3.818664   4.736452   3.161760   2.330379
    13  H    3.450599   4.531404   5.387017   3.212728   2.514975
    14  H    4.140596   4.627740   5.570332   4.221441   3.307816
    15  O    2.693904   3.145352   4.061637   2.439562   1.443194
                    6          7          8          9         10
     6  O    0.000000
     7  H    0.954135   0.000000
     8  O    2.615623   3.145907   0.000000
     9  C    3.981891   4.497853   1.411911   0.000000
    10  H    4.363857   5.035132   2.054565   1.097949   0.000000
    11  H    4.619375   5.085353   2.032790   1.097594   1.782369
    12  C    4.623486   4.938928   2.430288   1.530319   2.151166
    13  H    4.771158   4.895432   2.729211   2.136927   3.044603
    14  H    5.682015   6.040155   3.353175   2.131968   2.428135
    15  O    4.339608   4.636221   2.804459   2.386065   2.686796
                   11         12         13         14         15
    11  H    0.000000
    12  C    2.184294   0.000000
    13  H    2.425297   1.114937   0.000000
    14  H    2.482956   1.114126   1.772047   0.000000
    15  O    3.331105   1.358633   2.071869   2.069454   0.000000
 Symmetry turned off by external request.
 Stoichiometry    C2H7O5Si(1-)
 Framework group  C1[X(C2H7O5Si)]
 Deg. of freedom    39
 Full point group                 C1      NOp   1
 Rotational constants (GHZ):           2.8376518           1.3868807           1.2587252
 Standard basis: def2TZVPP (5D, 7F)
   357 basis functions,   545 primitive gaussians,   405 cartesian basis functions
    37 alpha electrons       37 beta electrons
       nuclear repulsion energy       530.0685742351 Hartrees.
 NAtoms=   15 NActive=   15 NUniq=   15 SFac= 1.00D+00 NAtFMM=   60 NAOKFM=F Big=F
 Integral buffers will be    131072 words long.
 Raffenetti 2 integral format.
 Two-electron integral symmetry is turned off.
 Nuclear repulsion after empirical dispersion term =      530.0618336258 Hartrees.
 One-electron integrals computed using PRISM.
   1 Symmetry operations used in ECPInt.
 ECPInt:  NShTT=    8911 NPrTT=   25186 LenC2=    8640 LenP2D=   19455.
 LDataN:  DoStor=T MaxTD1= 6 Len=  172
 NBasis=   357 RedAO= T EigKep=  3.33D-04  NBF=   357
 NBsUse=   357 1.00D-06 EigRej= -1.00D+00 NBFU=   357
 Initial guess from the checkpoint file:  "QL_MonoToBi_DeprotonatedLigandAttacking_IRC_forward.chk"
 B after Tr=    -0.000200   -0.000110    0.000267
         Rot=    1.000000    0.000101   -0.000021   -0.000068 Ang=   0.01 deg.
 ExpMin= 7.01D-02 ExpMax= 4.48D+04 ExpMxC= 1.53D+03 IAcc=3 IRadAn=         5 AccDes= 0.00D+00
 Harris functional with IExCor= 4639 and IRadAn=       5 diagonalized for initial guess.
 HarFok:  IExCor= 4639 AccDes= 0.00D+00 IRadAn=         5 IDoV= 1 UseB2=F ITyADJ=14
 ICtDFT=  3500011 ScaDFX=  1.000000  1.000000  1.000000  1.000000
 FoFCou: FMM=F IPFlag=           0 FMFlag=      100000 FMFlg1=           0
         NFxFlg=           0 DoJE=T BraDBF=F KetDBF=T FulRan=T
         wScrn=  0.000000 ICntrl=       500 IOpCl=  0 I1Cent=   200000004 NGrid=           0
         NMat0=    1 NMatS0=      1 NMatT0=    0 NMatD0=    1 NMtDS0=    0 NMtDT0=    0
 Symmetry not used in FoFCou.
 Requested convergence on RMS density matrix=1.00D-08 within 128 cycles.
 Requested convergence on MAX density matrix=1.00D-06.
 Requested convergence on             energy=1.00D-06.
 No special actions if energy rises.
 Integral accuracy reduced to 1.0D-05 until final iterations.
 Initial convergence to 1.0D-05 achieved.  Increase integral accuracy.
 SCF Done:  E(RwB97XD) =  -746.335135412     A.U. after   11 cycles
            NFock= 11  Conv=0.62D-08     -V/T= 2.0033
 DoSCS=F DFT=T ScalE2(SS,OS)=  1.000000  1.000000
 Range of M.O.s used for correlation:     1   357
 NBasis=   357 NAE=    37 NBE=    37 NFC=     0 NFV=     0
 NROrb=    357 NOA=    37 NOB=    37 NVA=   320 NVB=   320

 **** Warning!!: The largest alpha MO coefficient is  0.11676287D+02

 Symmetrizing basis deriv contribution to polar:
 IMax=3 JMax=2 DiffMx= 0.00D+00
   1 Symmetry operations used in ECPInt.
 ECPInt:  NShTT=    8911 NPrTT=   25186 LenC2=    8640 LenP2D=   19455.
 LDataN:  DoStor=T MaxTD1= 7 Len=  274
 Calling FoFJK, ICntrl=      2127 FMM=F ISym2X=0 I1Cent= 0 IOpClX= 0 NMat=1 NMatS=1 NMatT=0.
 -------------------------------------------------------------------
 Center     Atomic                   Forces (Hartrees/Bohr)
 Number     Number              X              Y              Z
 -------------------------------------------------------------------
      1       14           0.001363788   -0.000231345   -0.000388520
      2        8           0.000706133   -0.000678288   -0.000008305
      3        1          -0.000176175    0.000085897   -0.000008280
      4        8          -0.000432269   -0.000945385    0.000918560
      5        1          -0.001087173    0.000181274    0.000397570
      6        8           0.000687574   -0.000154668   -0.000480199
      7        1           0.000003489   -0.000019405   -0.000020423
      8        8           0.000148905   -0.000053254    0.000395253
      9        6           0.000199551    0.000429857    0.000329097
     10        1           0.000006860    0.000074946    0.000006004
     11        1           0.000010501    0.000032485    0.000069583
     12        6          -0.000164175    0.000061205   -0.000456843
     13        1           0.000046495    0.000001678    0.000016168
     14        1           0.000054770    0.000028757   -0.000058975
     15        8          -0.001368271    0.001186245   -0.000710690
 -------------------------------------------------------------------
 Cartesian Forces:  Max     0.001368271 RMS     0.000508731
 IRC-IRC-IRC-IRC-IRC-IRC-IRC-IRC-IRC-IRC-IRC-IRC-IRC-IRC-IRC-IRC-IRC-IRC
 Pt  3 Step number   1 out of a maximum of 100
 Modified Bulirsch-Stoer Extrapolation Cycles:
    EPS =    0.000010000000000
      PEZero:  N= 2 I= 1 D=  1.32D-03 Err=  4.16D-02
      PEZero:  N= 3 I= 2 D=  1.32D-03 Err=  5.74D-02
      PEZero:  N= 3 I= 1 D=  2.65D-03 Err=  4.48D-02
      PEZero:  N= 4 I= 3 D=  6.62D-04 Err=  5.84D-03
      PEZero:  N= 4 I= 2 D=  1.99D-03 Err=  4.96D-02
      PEZero:  N= 5 I= 4 D=  6.62D-04 Err=  2.49D-05
      PEZero:  N= 5 I= 3 D=  1.32D-03 Err=  5.81D-03
      PEZero:  N= 6 I= 5 D=  3.31D-04 Err=  1.86D-05
      PEZero:  N= 6 I= 4 D=  9.93D-04 Err=  4.23D-08
      PEZero:  N= 6 I= 3 D=  1.66D-03 Err=  2.69D-02
 Maximum DWI energy   std dev =  0.000001948 at pt    63
 Maximum DWI gradient std dev =  0.367447053 at pt   146
 CORRECTOR INTEGRATION CONVERGENCE:
   Recorrection delta-x convergence threshold:    0.010000
   Delta-x Convergence NOT Met
 IRC-IRC-IRC-IRC-IRC-IRC-IRC-IRC-IRC-IRC-IRC-IRC-IRC-IRC-IRC-IRC-IRC-IRC
                          Input orientation:                          
 ---------------------------------------------------------------------
 Center     Atomic      Atomic             Coordinates (Angstroms)
 Number     Number       Type             X           Y           Z
 ---------------------------------------------------------------------
      1         14           0        0.786181    0.003533   -0.023148
      2          8           0        1.037115   -0.011293    1.615820
      3          1           0        1.960651   -0.149066    1.811013
      4          8           0        0.548594    1.442008   -0.714919
      5          1           0       -0.445945    1.564933   -0.358670
      6          8           0        2.244619   -0.557246   -0.619274
      7          1           0        2.486726   -0.066375   -1.400799
      8          8           0       -0.289238   -1.174386   -0.419403
      9          6           0       -1.637797   -1.188989   -0.002128
     10          1           0       -1.683400   -1.433639    1.067220
     11          1           0       -2.149422   -1.981279   -0.563494
     12          6           0       -2.303679    0.170659   -0.224323
     13          1           0       -2.393521    0.307785   -1.326898
     14          1           0       -3.349417    0.073510    0.146623
     15          8           0       -1.608207    1.164746    0.387776
 ---------------------------------------------------------------------
                    Distance matrix (angstroms):
                    1          2          3          4          5
     1  Si   0.000000
     2  O    1.658133   0.000000
     3  H    2.183303   0.953939   0.000000
     4  O    1.613754   2.789818   3.302386   0.000000
     5  H    2.017097   2.929602   3.665654   1.063547   0.000000
     6  O    1.672388   2.598419   2.480634   2.623483   3.436669
     7  H    2.189671   3.347297   3.255661   2.549903   3.513938
     8  O    1.643484   2.693350   3.329870   2.763116   2.744470
     9  C    2.701523   3.340641   4.161460   3.494356   3.021874
    10  H    3.058300   3.118531   3.934776   4.053043   3.543429
    11  H    3.584581   4.334083   5.088023   4.361320   3.939468
    12  C    3.100910   3.818395   4.735961   3.161088   2.326635
    13  H    3.450049   4.531078   5.386465   3.212011   2.512158
    14  H    4.139673   4.626813   5.569251   4.220134   3.303001
    15  O    2.692651   3.144661   4.060598   2.438155   1.438118
                    6          7          8          9         10
     6  O    0.000000
     7  H    0.954123   0.000000
     8  O    2.615577   3.145919   0.000000
     9  C    3.981599   4.497581   1.411716   0.000000
    10  H    4.363675   5.034925   2.054494   1.097924   0.000000
    11  H    4.619370   5.085450   2.032762   1.097550   1.782221
    12  C    4.623078   4.938447   2.430057   1.530167   2.150953
    13  H    4.770886   4.895126   2.729173   2.136929   3.044442
    14  H    5.681346   6.039424   3.352958   2.132058   2.427882
    15  O    4.338626   4.634990   2.804061   2.385994   2.686801
                   11         12         13         14         15
    11  H    0.000000
    12  C    2.183957   0.000000
    13  H    2.425322   1.114696   0.000000
    14  H    2.483227   1.113825   1.771973   0.000000
    15  O    3.330961   1.358880   2.071522   2.069000   0.000000
 Symmetry turned off by external request.
 Stoichiometry    C2H7O5Si(1-)
 Framework group  C1[X(C2H7O5Si)]
 Deg. of freedom    39
 Full point group                 C1      NOp   1
 Rotational constants (GHZ):           2.8379025           1.3873048           1.2590472
 Standard basis: def2TZVPP (5D, 7F)
   357 basis functions,   545 primitive gaussians,   405 cartesian basis functions
    37 alpha electrons       37 beta electrons
       nuclear repulsion energy       530.1113225630 Hartrees.
 NAtoms=   15 NActive=   15 NUniq=   15 SFac= 1.00D+00 NAtFMM=   60 NAOKFM=F Big=F
 Integral buffers will be    131072 words long.
 Raffenetti 2 integral format.
 Two-electron integral symmetry is turned off.
 Nuclear repulsion after empirical dispersion term =      530.1045819723 Hartrees.
 One-electron integrals computed using PRISM.
   1 Symmetry operations used in ECPInt.
 ECPInt:  NShTT=    8911 NPrTT=   25186 LenC2=    8640 LenP2D=   19455.
 LDataN:  DoStor=T MaxTD1= 6 Len=  172
 NBasis=   357 RedAO= T EigKep=  3.33D-04  NBF=   357
 NBsUse=   357 1.00D-06 EigRej= -1.00D+00 NBFU=   357
 Initial guess from the checkpoint file:  "QL_MonoToBi_DeprotonatedLigandAttacking_IRC_forward.chk"
 B after Tr=    -0.000055    0.000003    0.000058
         Rot=    1.000000   -0.000001   -0.000008   -0.000006 Ang=  -0.00 deg.
 ExpMin= 7.01D-02 ExpMax= 4.48D+04 ExpMxC= 1.53D+03 IAcc=3 IRadAn=         5 AccDes= 0.00D+00
 Harris functional with IExCor= 4639 and IRadAn=       5 diagonalized for initial guess.
 HarFok:  IExCor= 4639 AccDes= 0.00D+00 IRadAn=         5 IDoV= 1 UseB2=F ITyADJ=14
 ICtDFT=  3500011 ScaDFX=  1.000000  1.000000  1.000000  1.000000
 FoFCou: FMM=F IPFlag=           0 FMFlag=      100000 FMFlg1=           0
         NFxFlg=           0 DoJE=T BraDBF=F KetDBF=T FulRan=T
         wScrn=  0.000000 ICntrl=       500 IOpCl=  0 I1Cent=   200000004 NGrid=           0
         NMat0=    1 NMatS0=      1 NMatT0=    0 NMatD0=    1 NMtDS0=    0 NMtDT0=    0
 Symmetry not used in FoFCou.
 Requested convergence on RMS density matrix=1.00D-08 within 128 cycles.
 Requested convergence on MAX density matrix=1.00D-06.
 Requested convergence on             energy=1.00D-06.
 No special actions if energy rises.
 Integral accuracy reduced to 1.0D-05 until final iterations.
 Initial convergence to 1.0D-05 achieved.  Increase integral accuracy.
 SCF Done:  E(RwB97XD) =  -746.335140259     A.U. after   10 cycles
            NFock= 10  Conv=0.56D-08     -V/T= 2.0033
 DoSCS=F DFT=T ScalE2(SS,OS)=  1.000000  1.000000
 Range of M.O.s used for correlation:     1   357
 NBasis=   357 NAE=    37 NBE=    37 NFC=     0 NFV=     0
 NROrb=    357 NOA=    37 NOB=    37 NVA=   320 NVB=   320

 **** Warning!!: The largest alpha MO coefficient is  0.11677784D+02

 Symmetrizing basis deriv contribution to polar:
 IMax=3 JMax=2 DiffMx= 0.00D+00
   1 Symmetry operations used in ECPInt.
 ECPInt:  NShTT=    8911 NPrTT=   25186 LenC2=    8640 LenP2D=   19455.
 LDataN:  DoStor=T MaxTD1= 7 Len=  274
 Calling FoFJK, ICntrl=      2127 FMM=F ISym2X=0 I1Cent= 0 IOpClX= 0 NMat=1 NMatS=1 NMatT=0.
 -------------------------------------------------------------------
 Center     Atomic                   Forces (Hartrees/Bohr)
 Number     Number              X              Y              Z
 -------------------------------------------------------------------
      1       14           0.001613213   -0.000448702   -0.000382250
      2        8           0.000444935   -0.000655111   -0.000073279
      3        1           0.000032177    0.000049664    0.000025810
      4        8          -0.001093687   -0.000688636    0.001052266
      5        1          -0.000651484   -0.000030253    0.000288415
      6        8           0.000653527   -0.000179757   -0.000450753
      7        1           0.000011530   -0.000007238   -0.000032878
      8        8           0.000185007    0.000008171    0.000425918
      9        6           0.000188096    0.000409618    0.000347797
     10        1           0.000008539    0.000064861    0.000033986
     11        1           0.000002465    0.000005612    0.000053263
     12        6          -0.000094159    0.000114228   -0.000504983
     13        1           0.000026058   -0.000013972   -0.000036385
     14        1          -0.000013536    0.000012018   -0.000046161
     15        8          -0.001312681    0.001359496   -0.000700767
 -------------------------------------------------------------------
 Cartesian Forces:  Max     0.001613213 RMS     0.000525542
 IRC-IRC-IRC-IRC-IRC-IRC-IRC-IRC-IRC-IRC-IRC-IRC-IRC-IRC-IRC-IRC-IRC-IRC
 Error in corrector energy =           0.0000013477
 Magnitude of corrector gradient =     0.0036872218
 Magnitude of analytic gradient =      0.0035254433
 Magnitude of difference =             0.0007044697
 Angle between gradients (degrees)=   10.9124
 Pt  3 Step number   2 out of a maximum of 100
 Modified Bulirsch-Stoer Extrapolation Cycles:
    EPS =    0.000010000000000
      PEZero:  N= 2 I= 1 D=  1.32D-03 Err=  4.19D-02
      PEZero:  N= 3 I= 2 D=  1.32D-03 Err=  5.80D-02
      PEZero:  N= 3 I= 1 D=  2.65D-03 Err=  4.51D-02
      PEZero:  N= 4 I= 3 D=  6.62D-04 Err=  6.53D-03
      PEZero:  N= 4 I= 2 D=  1.99D-03 Err=  4.93D-02
      PEZero:  N= 5 I= 4 D=  6.62D-04 Err=  3.47D-05
      PEZero:  N= 5 I= 3 D=  1.32D-03 Err=  6.49D-03
      PEZero:  N= 6 I= 5 D=  3.31D-04 Err=  2.60D-05
      PEZero:  N= 6 I= 4 D=  9.93D-04 Err=  5.96D-08
      PEZero:  N= 6 I= 3 D=  1.66D-03 Err=  2.71D-02
 Maximum DWI energy   std dev =  0.000002394 at pt   188
 Maximum DWI gradient std dev =  0.497364819 at pt   144
 CORRECTOR INTEGRATION CONVERGENCE:
   Recorrection delta-x convergence threshold:    0.010000
   Delta-x Convergence Met
 Point Number:   3          Path Number:   1
   CHANGE IN THE REACTION COORDINATE =    0.25393
   NET REACTION COORDINATE UP TO THIS POINT =    0.76243
  # OF POINTS ALONG THE PATH =   3
  # OF STEPS =   2

 Calculating another point on the path.
 IRC-IRC-IRC-IRC-IRC-IRC-IRC-IRC-IRC-IRC-IRC-IRC-IRC-IRC-IRC-IRC-IRC-IRC
                          Input orientation:                          
 ---------------------------------------------------------------------
 Center     Atomic      Atomic             Coordinates (Angstroms)
 Number     Number       Type             X           Y           Z
 ---------------------------------------------------------------------
      1         14           0        0.794249    0.001117   -0.025063
      2          8           0        1.040850   -0.017058    1.615137
      3          1           0        1.965243   -0.141425    1.815502
      4          8           0        0.534392    1.437055   -0.704478
      5          1           0       -0.477027    1.539562   -0.332088
      6          8           0        2.250431   -0.558890   -0.623281
      7          1           0        2.489739   -0.068543   -1.406055
      8          8           0       -0.287391   -1.174251   -0.415688
      9          6           0       -1.635606   -1.184086    0.001854
     10          1           0       -1.681818   -1.421815    1.072819
     11          1           0       -2.148482   -1.979589   -0.553955
     12          6           0       -2.304542    0.172641   -0.229938
     13          1           0       -2.388636    0.305085   -1.332842
     14          1           0       -3.350788    0.074124    0.136868
     15          8           0       -1.619479    1.176551    0.381363
 ---------------------------------------------------------------------
                    Distance matrix (angstroms):
                    1          2          3          4          5
     1  Si   0.000000
     2  O    1.658735   0.000000
     3  H    2.186143   0.953999   0.000000
     4  O    1.609673   2.784163   3.299884   0.000000
     5  H    2.019213   2.918682   3.660949   1.082660   0.000000
     6  O    1.670909   2.601382   2.490637   2.633473   3.453596
     7  H    2.187847   3.351049   3.264787   2.565622   3.541343
     8  O    1.644392   2.688414   3.334560   2.752753   2.721716
     9  C    2.703633   3.335874   4.164442   3.475368   2.978604
    10  H    3.059573   3.111329   3.935991   4.030324   3.492140
    11  H    3.586445   4.327623   5.090766   4.346715   3.902232
    12  C    3.110290   3.825172   4.744842   3.143800   2.284452
    13  H    3.454482   4.533843   5.391447   3.196920   2.485899
    14  H    4.148842   4.634661   5.578930   4.202389   3.259744
    15  O    2.715310   3.166110   4.079711   2.426123   1.394985
                    6          7          8          9         10
     6  O    0.000000
     7  H    0.954171   0.000000
     8  O    2.619600   3.148947   0.000000
     9  C    3.985342   4.499458   1.411426   0.000000
    10  H    4.368521   5.037663   2.054596   1.098006   0.000000
    11  H    4.623162   5.088346   2.032571   1.097629   1.781932
    12  C    4.630080   4.942323   2.432596   1.530330   2.151105
    13  H    4.771884   4.893210   2.728523   2.136842   3.044500
    14  H    5.687899   6.042576   3.353828   2.131471   2.428848
    15  O    4.358586   4.650892   2.817094   2.391003   2.689518
                   11         12         13         14         15
    11  H    0.000000
    12  C    2.182072   0.000000
    13  H    2.425711   1.114006   0.000000
    14  H    2.478006   1.113051   1.771758   0.000000
    15  O    3.334049   1.360454   2.071124   2.067016   0.000000
 Symmetry turned off by external request.
 Stoichiometry    C2H7O5Si(1-)
 Framework group  C1[X(C2H7O5Si)]
 Deg. of freedom    39
 Full point group                 C1      NOp   1
 Rotational constants (GHZ):           2.8444870           1.3831610           1.2552767
 Standard basis: def2TZVPP (5D, 7F)
   357 basis functions,   545 primitive gaussians,   405 cartesian basis functions
    37 alpha electrons       37 beta electrons
       nuclear repulsion energy       529.9516511652 Hartrees.
 NAtoms=   15 NActive=   15 NUniq=   15 SFac= 1.00D+00 NAtFMM=   60 NAOKFM=F Big=F
 Integral buffers will be    131072 words long.
 Raffenetti 2 integral format.
 Two-electron integral symmetry is turned off.
 Nuclear repulsion after empirical dispersion term =      529.9448981890 Hartrees.
 One-electron integrals computed using PRISM.
   1 Symmetry operations used in ECPInt.
 ECPInt:  NShTT=    8911 NPrTT=   25186 LenC2=    8639 LenP2D=   19452.
 LDataN:  DoStor=T MaxTD1= 6 Len=  172
 NBasis=   357 RedAO= T EigKep=  3.31D-04  NBF=   357
 NBsUse=   357 1.00D-06 EigRej= -1.00D+00 NBFU=   357
 Initial guess from the checkpoint file:  "QL_MonoToBi_DeprotonatedLigandAttacking_IRC_forward.chk"
 B after Tr=    -0.000239   -0.000102    0.000332
         Rot=    1.000000    0.000082   -0.000018   -0.000065 Ang=   0.01 deg.
 ExpMin= 7.01D-02 ExpMax= 4.48D+04 ExpMxC= 1.53D+03 IAcc=3 IRadAn=         5 AccDes= 0.00D+00
 Harris functional with IExCor= 4639 and IRadAn=       5 diagonalized for initial guess.
 HarFok:  IExCor= 4639 AccDes= 0.00D+00 IRadAn=         5 IDoV= 1 UseB2=F ITyADJ=14
 ICtDFT=  3500011 ScaDFX=  1.000000  1.000000  1.000000  1.000000
 FoFCou: FMM=F IPFlag=           0 FMFlag=      100000 FMFlg1=           0
         NFxFlg=           0 DoJE=T BraDBF=F KetDBF=T FulRan=T
         wScrn=  0.000000 ICntrl=       500 IOpCl=  0 I1Cent=   200000004 NGrid=           0
         NMat0=    1 NMatS0=      1 NMatT0=    0 NMatD0=    1 NMtDS0=    0 NMtDT0=    0
 Symmetry not used in FoFCou.
 Requested convergence on RMS density matrix=1.00D-08 within 128 cycles.
 Requested convergence on MAX density matrix=1.00D-06.
 Requested convergence on             energy=1.00D-06.
 No special actions if energy rises.
 Integral accuracy reduced to 1.0D-05 until final iterations.
 Initial convergence to 1.0D-05 achieved.  Increase integral accuracy.
 SCF Done:  E(RwB97XD) =  -746.335450438     A.U. after   12 cycles
            NFock= 12  Conv=0.50D-08     -V/T= 2.0033
 DoSCS=F DFT=T ScalE2(SS,OS)=  1.000000  1.000000
 Range of M.O.s used for correlation:     1   357
 NBasis=   357 NAE=    37 NBE=    37 NFC=     0 NFV=     0
 NROrb=    357 NOA=    37 NOB=    37 NVA=   320 NVB=   320

 **** Warning!!: The largest alpha MO coefficient is  0.11838206D+02

 Symmetrizing basis deriv contribution to polar:
 IMax=3 JMax=2 DiffMx= 0.00D+00
   1 Symmetry operations used in ECPInt.
 ECPInt:  NShTT=    8911 NPrTT=   25186 LenC2=    8639 LenP2D=   19452.
 LDataN:  DoStor=T MaxTD1= 7 Len=  274
 Calling FoFJK, ICntrl=      2127 FMM=F ISym2X=0 I1Cent= 0 IOpClX= 0 NMat=1 NMatS=1 NMatT=0.
 -------------------------------------------------------------------
 Center     Atomic                   Forces (Hartrees/Bohr)
 Number     Number              X              Y              Z
 -------------------------------------------------------------------
      1       14           0.002004322   -0.000135702   -0.000671113
      2        8           0.000820589   -0.000971229   -0.000016863
      3        1          -0.000167254    0.000095682   -0.000007076
      4        8          -0.000381380   -0.001471432    0.001213363
      5        1          -0.002089657    0.000347317    0.000758866
      6        8           0.000947131   -0.000308975   -0.000626252
      7        1           0.000008700   -0.000001279   -0.000034533
      8        8           0.000211478   -0.000171837    0.000582282
      9        6           0.000343737    0.000602116    0.000480653
     10        1           0.000008427    0.000089158    0.000023434
     11        1           0.000002848    0.000033105    0.000080534
     12        6          -0.000147415    0.000034572   -0.000728045
     13        1           0.000058251    0.000010972   -0.000000321
     14        1           0.000056075    0.000066671   -0.000053524
     15        8          -0.001675852    0.001780864   -0.001001405
 -------------------------------------------------------------------
 Cartesian Forces:  Max     0.002089657 RMS     0.000746296
 IRC-IRC-IRC-IRC-IRC-IRC-IRC-IRC-IRC-IRC-IRC-IRC-IRC-IRC-IRC-IRC-IRC-IRC
 Pt  4 Step number   1 out of a maximum of 100
 Modified Bulirsch-Stoer Extrapolation Cycles:
    EPS =    0.000010000000000
      PEZero:  N= 2 I= 1 D=  1.32D-03 Err=  4.47D-02
      PEZero:  N= 3 I= 2 D=  1.32D-03 Err=  7.46D-05
      PEZero:  N= 3 I= 1 D=  2.65D-03 Err=  4.46D-02
      PEZero:  N= 4 I= 3 D=  6.62D-04 Err=  5.64D-05
      PEZero:  N= 4 I= 2 D=  1.99D-03 Err=  1.59D-06
      PEZero:  N= 4 I= 1 D=  3.31D-03 Err=  4.39D-05
 Maximum DWI energy   std dev =  0.000005640 at pt    41
 Maximum DWI gradient std dev =  0.441173780 at pt    74
 CORRECTOR INTEGRATION CONVERGENCE:
   Recorrection delta-x convergence threshold:    0.010000
   Delta-x Convergence NOT Met
 IRC-IRC-IRC-IRC-IRC-IRC-IRC-IRC-IRC-IRC-IRC-IRC-IRC-IRC-IRC-IRC-IRC-IRC
                          Input orientation:                          
 ---------------------------------------------------------------------
 Center     Atomic      Atomic             Coordinates (Angstroms)
 Number     Number       Type             X           Y           Z
 ---------------------------------------------------------------------
      1         14           0        0.793965    0.001773   -0.025237
      2          8           0        1.040638   -0.016900    1.615231
      3          1           0        1.964865   -0.141187    1.815293
      4          8           0        0.534354    1.436810   -0.704455
      5          1           0       -0.482753    1.537181   -0.328195
      6          8           0        2.250249   -0.559100   -0.623062
      7          1           0        2.489463   -0.068152   -1.405509
      8          8           0       -0.287580   -1.174504   -0.415765
      9          6           0       -1.635488   -1.184264    0.001785
     10          1           0       -1.681894   -1.421873    1.072770
     11          1           0       -2.148775   -1.979573   -0.553812
     12          6           0       -2.304377    0.172277   -0.229938
     13          1           0       -2.388427    0.305466   -1.332421
     14          1           0       -3.350033    0.075262    0.137662
     15          8           0       -1.618403    1.176326    0.381311
 ---------------------------------------------------------------------
                    Distance matrix (angstroms):
                    1          2          3          4          5
     1  Si   0.000000
     2  O    1.659016   0.000000
     3  H    2.186092   0.953766   0.000000
     4  O    1.608747   2.783980   3.299329   0.000000
     5  H    2.019720   2.917669   3.660914   1.089106   0.000000
     6  O    1.671148   2.601365   2.490315   2.633359   3.456970
     7  H    2.187408   3.350611   3.264062   2.564925   3.545669
     8  O    1.644956   2.688709   3.334497   2.752795   2.720110
     9  C    2.703637   3.335805   4.164056   3.475200   2.973878
    10  H    3.059782   3.111333   3.935779   4.030180   3.486638
    11  H    3.586759   4.327723   5.090615   4.346671   3.897961
    12  C    3.109774   3.824861   4.744224   3.143661   2.278362
    13  H    3.453776   4.533327   5.390617   3.196393   2.481368
    14  H    4.147849   4.633540   5.577584   4.201361   3.252004
    15  O    2.713737   3.164939   4.078229   2.425098   1.386836
                    6          7          8          9         10
     6  O    0.000000
     7  H    0.954189   0.000000
     8  O    2.619593   3.148901   0.000000
     9  C    3.984998   4.499044   1.411134   0.000000
    10  H    4.368292   5.037326   2.054517   1.098008   0.000000
    11  H    4.623197   5.088435   2.032546   1.097574   1.781791
    12  C    4.629695   4.941728   2.432247   1.530135   2.150778
    13  H    4.771580   4.892723   2.728393   2.136894   3.044311
    14  H    5.687202   6.041660   3.353628   2.131791   2.428688
    15  O    4.357399   4.649302   2.816526   2.390965   2.689383
                   11         12         13         14         15
    11  H    0.000000
    12  C    2.181643   0.000000
    13  H    2.425916   1.113675   0.000000
    14  H    2.478609   1.112627   1.771673   0.000000
    15  O    3.333984   1.360992   2.070800   2.066458   0.000000
 Symmetry turned off by external request.
 Stoichiometry    C2H7O5Si(1-)
 Framework group  C1[X(C2H7O5Si)]
 Deg. of freedom    39
 Full point group                 C1      NOp   1
[...]
      7        1           0.000080540   -0.000110030   -0.000100346
      8        8           0.000659752    0.000261152    0.000128876
      9        6           0.000792996    0.001093423    0.001162948
     10        1           0.000104526    0.000244847    0.000156502
     11        1           0.000022821   -0.000044080    0.000221250
     12        6          -0.000255334    0.000016924   -0.000748768
     13        1           0.000106424   -0.000051167   -0.000154844
     14        1          -0.000119531   -0.000099880   -0.000174864
     15        8          -0.004270820    0.002384085   -0.000729033
 -------------------------------------------------------------------
 Cartesian Forces:  Max     0.004270820 RMS     0.001289967
 IRC-IRC-IRC-IRC-IRC-IRC-IRC-IRC-IRC-IRC-IRC-IRC-IRC-IRC-IRC-IRC-IRC-IRC
 Error in corrector energy =          -0.0000303301
 Magnitude of corrector gradient =     0.0073868212
 Magnitude of analytic gradient =      0.0086533606
 Magnitude of difference =             0.0052841036
 Angle between gradients (degrees)=   37.4260
 Pt 15 Step number  98 out of a maximum of 100
 Modified Bulirsch-Stoer Extrapolation Cycles:
    EPS =    0.000010000000000
      PEZero:  N= 2 I= 1 D=  1.32D-03 Err=  1.47D-04
      PEZero:  N= 3 I= 2 D=  1.32D-03 Err=  9.79D-05
      PEZero:  N= 3 I= 1 D=  2.65D-03 Err=  3.42D-07
 Maximum DWI energy   std dev =  0.000006063 at pt    73
 Maximum DWI gradient std dev =  0.489799296 at pt    28
 CORRECTOR INTEGRATION CONVERGENCE:
   Recorrection delta-x convergence threshold:    0.010000
   Delta-x Convergence NOT Met
 IRC-IRC-IRC-IRC-IRC-IRC-IRC-IRC-IRC-IRC-IRC-IRC-IRC-IRC-IRC-IRC-IRC-IRC
                          Input orientation:                          
 ---------------------------------------------------------------------
 Center     Atomic      Atomic             Coordinates (Angstroms)
 Number     Number       Type             X           Y           Z
 ---------------------------------------------------------------------
      1         14           0        0.861039    0.014801   -0.062056
      2          8           0        1.047439   -0.063094    1.601242
      3          1           0        1.966148   -0.080255    1.843231
      4          8           0        0.538669    1.411536   -0.681892
      5          1           0       -0.945272    1.501459   -0.017077
      6          8           0        2.299138   -0.624207   -0.638795
      7          1           0        2.578634   -0.082660   -1.373988
      8          8           0       -0.267924   -1.172668   -0.394056
      9          6           0       -1.596227   -1.144649    0.037817
     10          1           0       -1.648777   -1.318899    1.122270
     11          1           0       -2.130213   -1.965933   -0.460227
     12          6           0       -2.323857    0.160308   -0.272600
     13          1           0       -2.295413    0.319972   -1.361098
     14          1           0       -3.375697    0.031731    0.016850
     15          8           0       -1.814475    1.261470    0.414739
 ---------------------------------------------------------------------
                    Distance matrix (angstroms):
                    1          2          3          4          5
     1  Si   0.000000
     2  O    1.675522   0.000000
     3  H    2.204636   0.950200   0.000000
     4  O    1.561726   2.765154   3.261807   0.000000
     5  H    2.339857   3.006273   3.799859   1.628541   0.000000
     6  O    1.676034   2.626664   2.562659   2.691721   3.928255
     7  H    2.163515   3.346182   3.275003   2.621655   4.094942
     8  O    1.671784   2.634872   3.345130   2.722416   2.784217
     9  C    2.718907   3.256229   4.133155   3.407322   2.725554
    10  H    3.079052   3.012647   3.888664   3.936394   3.122091
    11  H    3.609631   4.238859   5.063780   4.310378   3.690972
    12  C    3.195163   3.863525   4.789442   3.150737   1.940225
    13  H    3.426927   4.482952   5.346850   3.112050   2.241693
    14  H    4.237504   4.699300   5.646549   4.208843   2.840460
    15  O    2.989965   3.369393   4.258394   2.600462   0.999786
                    6          7          8          9         10
     6  O    0.000000
     7  H    0.954934   0.000000
     8  O    2.636384   3.201761   0.000000
     9  C    3.987799   4.533264   1.397028   0.000000
    10  H    4.378354   5.062667   2.056060   1.099619   0.000000
    11  H    4.631551   5.153146   2.025282   1.098952   1.776156
    12  C    4.703366   5.030557   2.453250   1.526014   2.142300
    13  H    4.745851   4.890666   2.697008   2.142648   3.044857
    14  H    5.750120   6.115682   3.358224   2.133266   2.455281
    15  O    4.646238   4.930074   2.995161   2.445222   2.680739
                   11         12         13         14         15
    11  H    0.000000
    12  C    2.143270   0.000000
    13  H    2.462564   1.100514   0.000000
    14  H    2.401977   1.098490   1.774497   0.000000
    15  O    3.358777   1.394439   2.066717   2.026817   0.000000
 Symmetry turned off by external request.
 Stoichiometry    C2H7O5Si(1-)
 Framework group  C1[X(C2H7O5Si)]
 Deg. of freedom    39
 Full point group                 C1      NOp   1
 Rotational constants (GHZ):           2.8530596           1.3148697           1.1969038
 Standard basis: def2TZVPP (5D, 7F)
   357 basis functions,   545 primitive gaussians,   405 cartesian basis functions
    37 alpha electrons       37 beta electrons
       nuclear repulsion energy       523.9670865783 Hartrees.
 NAtoms=   15 NActive=   15 NUniq=   15 SFac= 1.00D+00 NAtFMM=   60 NAOKFM=F Big=F
 Integral buffers will be    131072 words long.
 Raffenetti 2 integral format.
 Two-electron integral symmetry is turned off.
 Nuclear repulsion after empirical dispersion term =      523.9601863994 Hartrees.
 One-electron integrals computed using PRISM.
   1 Symmetry operations used in ECPInt.
 ECPInt:  NShTT=    8911 NPrTT=   25186 LenC2=    8621 LenP2D=   19369.
 LDataN:  DoStor=T MaxTD1= 6 Len=  172
 NBasis=   357 RedAO= T EigKep=  3.05D-04  NBF=   357
 NBsUse=   357 1.00D-06 EigRej= -1.00D+00 NBFU=   357
 Initial guess from the checkpoint file:  "QL_MonoToBi_DeprotonatedLigandAttacking_IRC_forward.chk"
 B after Tr=     0.000020   -0.000205   -0.000126
         Rot=    1.000000   -0.000031    0.000013    0.000054 Ang=  -0.01 deg.
 ExpMin= 7.01D-02 ExpMax= 4.48D+04 ExpMxC= 1.53D+03 IAcc=3 IRadAn=         5 AccDes= 0.00D+00
 Harris functional with IExCor= 4639 and IRadAn=       5 diagonalized for initial guess.
 HarFok:  IExCor= 4639 AccDes= 0.00D+00 IRadAn=         5 IDoV= 1 UseB2=F ITyADJ=14
 ICtDFT=  3500011 ScaDFX=  1.000000  1.000000  1.000000  1.000000
 FoFCou: FMM=F IPFlag=           0 FMFlag=      100000 FMFlg1=           0
         NFxFlg=           0 DoJE=T BraDBF=F KetDBF=T FulRan=T
         wScrn=  0.000000 ICntrl=       500 IOpCl=  0 I1Cent=   200000004 NGrid=           0
         NMat0=    1 NMatS0=      1 NMatT0=    0 NMatD0=    1 NMtDS0=    0 NMtDT0=    0
 Symmetry not used in FoFCou.
 Requested convergence on RMS density matrix=1.00D-08 within 128 cycles.
 Requested convergence on MAX density matrix=1.00D-06.
 Requested convergence on             energy=1.00D-06.
 No special actions if energy rises.
 Integral accuracy reduced to 1.0D-05 until final iterations.
 Initial convergence to 1.0D-05 achieved.  Increase integral accuracy.
 SCF Done:  E(RwB97XD) =  -746.350236767     A.U. after   10 cycles
            NFock= 10  Conv=0.63D-08     -V/T= 2.0033
 DoSCS=F DFT=T ScalE2(SS,OS)=  1.000000  1.000000
 Range of M.O.s used for correlation:     1   357
 NBasis=   357 NAE=    37 NBE=    37 NFC=     0 NFV=     0
 NROrb=    357 NOA=    37 NOB=    37 NVA=   320 NVB=   320

 **** Warning!!: The largest alpha MO coefficient is  0.13311130D+02

 Symmetrizing basis deriv contribution to polar:
 IMax=3 JMax=2 DiffMx= 0.00D+00
   1 Symmetry operations used in ECPInt.
 ECPInt:  NShTT=    8911 NPrTT=   25186 LenC2=    8621 LenP2D=   19369.
 LDataN:  DoStor=T MaxTD1= 7 Len=  274
 Calling FoFJK, ICntrl=      2127 FMM=F ISym2X=0 I1Cent= 0 IOpClX= 0 NMat=1 NMatS=1 NMatT=0.
 -------------------------------------------------------------------
 Center     Atomic                   Forces (Hartrees/Bohr)
 Number     Number              X              Y              Z
 -------------------------------------------------------------------
      1       14           0.002290867   -0.000643148   -0.000779502
      2        8          -0.001912214   -0.001545052   -0.001415822
      3        1           0.003024204    0.000244473    0.000949466
      4        8          -0.000391024   -0.000081035    0.001518969
      5        1           0.000964348    0.000481439   -0.000087513
      6        8           0.001006186   -0.001162208   -0.000589116
      7        1           0.000050571   -0.000099321   -0.000045903
      8        8           0.000605537    0.000197610    0.000073210
      9        6           0.000823969    0.001068326    0.001280242
     10        1           0.000113756    0.000230583    0.000039153
     11        1           0.000048935    0.000026182    0.000259908
     12        6          -0.000629964   -0.000071439   -0.000812714
     13        1           0.000103268   -0.000018517    0.000064900
     14        1           0.000049578   -0.000051656   -0.000182579
     15        8          -0.006148018    0.001423763   -0.000272702
 -------------------------------------------------------------------
 Cartesian Forces:  Max     0.006148018 RMS     0.001297946
 IRC-IRC-IRC-IRC-IRC-IRC-IRC-IRC-IRC-IRC-IRC-IRC-IRC-IRC-IRC-IRC-IRC-IRC
 Error in corrector energy =          -0.0000299449
 Magnitude of corrector gradient =     0.0073050299
 Magnitude of analytic gradient =      0.0087068890
 Magnitude of difference =             0.0048464475
 Angle between gradients (degrees)=   33.8184
 Pt 15 Step number  99 out of a maximum of 100
 Modified Bulirsch-Stoer Extrapolation Cycles:
    EPS =    0.000010000000000
      PEZero:  N= 2 I= 1 D=  1.32D-03 Err=  4.15D-04
      PEZero:  N= 3 I= 2 D=  1.32D-03 Err=  2.76D-04
      PEZero:  N= 3 I= 1 D=  2.65D-03 Err=  5.61D-07
 Maximum DWI energy   std dev =  0.000006390 at pt    -1
 Maximum DWI gradient std dev =  0.379750742 at pt    57
 CORRECTOR INTEGRATION CONVERGENCE:
   Recorrection delta-x convergence threshold:    0.010000
   Delta-x Convergence NOT Met
 IRC-IRC-IRC-IRC-IRC-IRC-IRC-IRC-IRC-IRC-IRC-IRC-IRC-IRC-IRC-IRC-IRC-IRC
                          Input orientation:                          
 ---------------------------------------------------------------------
 Center     Atomic      Atomic             Coordinates (Angstroms)
 Number     Number       Type             X           Y           Z
 ---------------------------------------------------------------------
      1         14           0        0.860909    0.014625   -0.061967
      2          8           0        1.046839   -0.064008    1.601042
      3          1           0        1.970940   -0.063510    1.846847
      4          8           0        0.538895    1.411690   -0.681755
      5          1           0       -0.941388    1.503945   -0.016192
      6          8           0        2.299036   -0.623894   -0.638841
      7          1           0        2.577781   -0.082338   -1.374290
      8          8           0       -0.268019   -1.172635   -0.394060
      9          6           0       -1.596445   -1.144867    0.037536
     10          1           0       -1.649143   -1.320148    1.121604
     11          1           0       -2.130274   -1.965680   -0.461195
     12          6           0       -2.324096    0.160255   -0.272223
     13          1           0       -2.296853    0.320122   -1.360427
     14          1           0       -3.375381    0.031921    0.018494
     15          8           0       -1.814206    1.260983    0.414639
 ---------------------------------------------------------------------
                    Distance matrix (angstroms):
                    1          2          3          4          5
     1  Si   0.000000
     2  O    1.675217   0.000000
     3  H    2.209489   0.956233   0.000000
     4  O    1.561930   2.765295   3.258957   0.000000
     5  H    2.338471   3.004492   3.795982   1.625646   0.000000
     6  O    1.675918   2.626508   2.569109   2.691383   3.926289
     7  H    2.163156   3.346150   3.277855   2.620837   4.092100
     8  O    1.671631   2.634073   3.356301   2.722612   2.785730
     9  C    2.718991   3.255727   4.143570   3.407791   2.729138
    10  H    3.079418   3.012651   3.900014   3.937328   3.125859
    11  H    3.609455   4.238305   5.075950   4.310423   3.694561
    12  C    3.195258   3.862981   4.794566   3.151273   1.944977
    13  H    3.427942   4.483094   5.352367   3.113451   2.246261
    14  H    4.237089   4.697839   5.651117   4.208998   2.844710
    15  O    2.989449   3.368788   4.258266   2.600361   1.003223
                    6          7          8          9         10
     6  O    0.000000
     7  H    0.954917   0.000000
     8  O    2.636439   3.201278   0.000000
     9  C    3.987941   4.532812   1.397054   0.000000
    10  H    4.378590   5.062464   2.055845   1.099411   0.000000
    11  H    4.631495   5.152330   2.025197   1.098836   1.775796
    12  C    4.703472   5.030090   2.453343   1.526031   2.142408
    13  H    4.747004   4.891240   2.697843   2.142677   3.044748
    14  H    5.749886   6.114985   3.358102   2.133027   2.454555
    15  O    4.645573   4.928929   2.994526   2.444942   2.681284
                   11         12         13         14         15
    11  H    0.000000
    12  C    2.143100   0.000000
    13  H    2.461963   1.100222   0.000000
    14  H    2.402249   1.098265   1.774178   0.000000
    15  O    3.358324   1.394048   2.066162   2.026028   0.000000
 Symmetry turned off by external request.
 Stoichiometry    C2H7O5Si(1-)
 Framework group  C1[X(C2H7O5Si)]
 Deg. of freedom    39
 Full point group                 C1      NOp   1
 Rotational constants (GHZ):           2.8529944           1.3149718           1.1969426
 Standard basis: def2TZVPP (5D, 7F)
   357 basis functions,   545 primitive gaussians,   405 cartesian basis functions
    37 alpha electrons       37 beta electrons
       nuclear repulsion energy       523.9356417884 Hartrees.
 NAtoms=   15 NActive=   15 NUniq=   15 SFac= 1.00D+00 NAtFMM=   60 NAOKFM=F Big=F
 Integral buffers will be    131072 words long.
 Raffenetti 2 integral format.
 Two-electron integral symmetry is turned off.
 Nuclear repulsion after empirical dispersion term =      523.9287429051 Hartrees.
 One-electron integrals computed using PRISM.
   1 Symmetry operations used in ECPInt.
 ECPInt:  NShTT=    8911 NPrTT=   25186 LenC2=    8621 LenP2D=   19367.
 LDataN:  DoStor=T MaxTD1= 6 Len=  172
 NBasis=   357 RedAO= T EigKep=  3.06D-04  NBF=   357
 NBsUse=   357 1.00D-06 EigRej= -1.00D+00 NBFU=   357
 Initial guess from the checkpoint file:  "QL_MonoToBi_DeprotonatedLigandAttacking_IRC_forward.chk"
 B after Tr=    -0.000020    0.000205    0.000126
         Rot=    1.000000    0.000031   -0.000013   -0.000054 Ang=   0.01 deg.
 ExpMin= 7.01D-02 ExpMax= 4.48D+04 ExpMxC= 1.53D+03 IAcc=3 IRadAn=         5 AccDes= 0.00D+00
 Harris functional with IExCor= 4639 and IRadAn=       5 diagonalized for initial guess.
 HarFok:  IExCor= 4639 AccDes= 0.00D+00 IRadAn=         5 IDoV= 1 UseB2=F ITyADJ=14
 ICtDFT=  3500011 ScaDFX=  1.000000  1.000000  1.000000  1.000000
 FoFCou: FMM=F IPFlag=           0 FMFlag=      100000 FMFlg1=           0
         NFxFlg=           0 DoJE=T BraDBF=F KetDBF=T FulRan=T
         wScrn=  0.000000 ICntrl=       500 IOpCl=  0 I1Cent=   200000004 NGrid=           0
         NMat0=    1 NMatS0=      1 NMatT0=    0 NMatD0=    1 NMtDS0=    0 NMtDT0=    0
 Symmetry not used in FoFCou.
 Requested convergence on RMS density matrix=1.00D-08 within 128 cycles.
 Requested convergence on MAX density matrix=1.00D-06.
 Requested convergence on             energy=1.00D-06.
 No special actions if energy rises.
 Integral accuracy reduced to 1.0D-05 until final iterations.
 Initial convergence to 1.0D-05 achieved.  Increase integral accuracy.
 SCF Done:  E(RwB97XD) =  -746.350237996     A.U. after   10 cycles
            NFock= 10  Conv=0.64D-08     -V/T= 2.0033
 DoSCS=F DFT=T ScalE2(SS,OS)=  1.000000  1.000000
 Range of M.O.s used for correlation:     1   357
 NBasis=   357 NAE=    37 NBE=    37 NFC=     0 NFV=     0
 NROrb=    357 NOA=    37 NOB=    37 NVA=   320 NVB=   320

 **** Warning!!: The largest alpha MO coefficient is  0.13409506D+02

 Symmetrizing basis deriv contribution to polar:
 IMax=3 JMax=2 DiffMx= 0.00D+00
   1 Symmetry operations used in ECPInt.
 ECPInt:  NShTT=    8911 NPrTT=   25186 LenC2=    8621 LenP2D=   19367.
 LDataN:  DoStor=T MaxTD1= 7 Len=  274
 Calling FoFJK, ICntrl=      2127 FMM=F ISym2X=0 I1Cent= 0 IOpClX= 0 NMat=1 NMatS=1 NMatT=0.
 -------------------------------------------------------------------
 Center     Atomic                   Forces (Hartrees/Bohr)
 Number     Number              X              Y              Z
 -------------------------------------------------------------------
      1       14           0.002399373   -0.000771784   -0.000804353
      2        8           0.004148158   -0.001654916    0.000576172
      3        1          -0.003249955    0.000342598   -0.000927539
      4        8          -0.000451693    0.000027006    0.001609770
      5        1          -0.000997491   -0.000540577    0.000459528
      6        8           0.001030235   -0.001097600   -0.000675299
      7        1           0.000080540   -0.000110030   -0.000100346
      8        8           0.000659752    0.000261152    0.000128876
      9        6           0.000792996    0.001093423    0.001162948
     10        1           0.000104526    0.000244847    0.000156502
     11        1           0.000022821   -0.000044080    0.000221250
     12        6          -0.000255334    0.000016923   -0.000748768
     13        1           0.000106424   -0.000051167   -0.000154844
     14        1          -0.000119531   -0.000099880   -0.000174864
     15        8          -0.004270820    0.002384085   -0.000729033
 -------------------------------------------------------------------
 Cartesian Forces:  Max     0.004270820 RMS     0.001289967
 IRC-IRC-IRC-IRC-IRC-IRC-IRC-IRC-IRC-IRC-IRC-IRC-IRC-IRC-IRC-IRC-IRC-IRC
 Error in corrector energy =          -0.0000303301
 Magnitude of corrector gradient =     0.0073868212
 Magnitude of analytic gradient =      0.0086533608
 Magnitude of difference =             0.0052841036
 Angle between gradients (degrees)=   37.4260
 Pt 15 Step number 100 out of a maximum of 100
 Modified Bulirsch-Stoer Extrapolation Cycles:
    EPS =    0.000010000000000
      PEZero:  N= 2 I= 1 D=  1.32D-03 Err=  1.47D-04
      PEZero:  N= 3 I= 2 D=  1.32D-03 Err=  9.79D-05
      PEZero:  N= 3 I= 1 D=  2.65D-03 Err=  3.42D-07
 Maximum DWI energy   std dev =  0.000006063 at pt    73
 Maximum DWI gradient std dev =  0.489799296 at pt    28
 CORRECTOR INTEGRATION CONVERGENCE:
   Recorrection delta-x convergence threshold:    0.010000
   Delta-x Convergence NOT Met
 Maximum number of corrector steps exceded.
 Error termination via Lnk1e in /opt/software/gaussian/g16.c01/l123.exe at Thu Feb 15 23:45:48 2024.
 Job cpu time:       1 days 18 hours 43 minutes  0.2 seconds.
 Elapsed time:       0 days 10 hours 45 minutes 38.7 seconds.
 File lengths (MBytes):  RWF=    177 Int=      0 D2E=      0 Chk=     11 Scr=      1
