 Entering Gaussian System, Link 0=/opt/software/gaussian/g16.c01/g16
 Initial command:
 /opt/software/gaussian/g16.c01/l1.exe "/scratch/arhender/17999669/Gau-344.inp" -scrdir="/scratch/arhender/17999669/"
 Entering Link 1 = /opt/software/gaussian/g16.c01/l1.exe PID=       346.
  
 Copyright (c) 1988-2019, Gaussian, Inc.  All Rights Reserved.
  
 This is part of the Gaussian(R) 16 program.  It is based on
 the Gaussian(R) 09 system (copyright 2009, Gaussian, Inc.),
 the Gaussian(R) 03 system (copyright 2003, Gaussian, Inc.),
 the Gaussian(R) 98 system (copyright 1998, Gaussian, Inc.),
 the Gaussian(R) 94 system (copyright 1995, Gaussian, Inc.),
 the Gaussian 92(TM) system (copyright 1992, Gaussian, Inc.),
 the Gaussian 90(TM) system (copyright 1990, Gaussian, Inc.),
 the Gaussian 88(TM) system (copyright 1988, Gaussian, Inc.),
 the Gaussian 86(TM) system (copyright 1986, Carnegie Mellon
 University), and the Gaussian 82(TM) system (copyright 1983,
 Carnegie Mellon University). Gaussian is a federally registered
 trademark of Gaussian, Inc.
  
 This software contains proprietary and confidential information,
 including trade secrets, belonging to Gaussian, Inc.
  
 This software is provided under written license and may be
 used, copied, transmitted, or stored only in accord with that
 written license.
  
 The following legend is applicable only to US Government
 contracts under FAR:
  
                    RESTRICTED RIGHTS LEGEND
  
 Use, reproduction and disclosure by the US Government is
 subject to restrictions as set forth in subparagraphs (a)
 and (c) of the Commercial Computer Software - Restricted
 Rights clause in FAR 52.227-19.
  
 Gaussian, Inc.
 340 Quinnipiac St., Bldg. 40, Wallingford CT 06492
  
  
 ---------------------------------------------------------------
 Warning -- This program may not be used in any manner that
 competes with the business of Gaussian, Inc. or will provide
 assistance to any competitor of Gaussian, Inc.  The licensee
 of this program is prohibited from giving any competitor of
 Gaussian, Inc. access to this program.  By using this program,
 the user acknowledges that Gaussian, Inc. is engaged in the
 business of creating and licensing software in the field of
 computational chemistry and represents and warrants to the
 licensee that it is not a competitor of Gaussian, Inc. and that
 it will not use this program in any manner prohibited above.
 ---------------------------------------------------------------
  

 Cite this work as:
 Gaussian 16, Revision C.01,
 M. J. Frisch, G. W. Trucks, H. B. Schlegel, G. E. Scuseria, 
 M. A. Robb, J. R. Cheeseman, G. Scalmani, V. Barone, 
 G. A. Petersson, H. Nakatsuji, X. Li, M. Caricato, A. V. Marenich, 
 J. Bloino, B. G. Janesko, R. Gomperts, B. Mennucci, H. P. Hratchian, 
 J. V. Ortiz, A. F. Izmaylov, J. L. Sonnenberg, D. Williams-Young, 
 F. Ding, F. Lipparini, F. Egidi, J. Goings, B. Peng, A. Petrone, 
 T. Henderson, D. Ranasinghe, V. G. Zakrzewski, J. Gao, N. Rega, 
 G. Zheng, W. Liang, M. Hada, M. Ehara, K. Toyota, R. Fukuda, 
 J. Hasegawa, M. Ishida, T. Nakajima, Y. Honda, O. Kitao, H. Nakai, 
 T. Vreven, K. Throssell, J. A. Montgomery, Jr., J. E. Peralta, 
 F. Ogliaro, M. J. Bearpark, J. J. Heyd, E. N. Brothers, K. N. Kudin, 
 V. N. Staroverov, T. A. Keith, R. Kobayashi, J. Normand, 
 K. Raghavachari, A. P. Rendell, J. C. Burant, S. S. Iyengar, 
 J. Tomasi, M. Cossi, J. M. Millam, M. Klene, C. Adamo, R. Cammi, 
 J. W. Ochterski, R. L. Martin, K. Morokuma, O. Farkas, 
 J. B. Foresman, and D. J. Fox, Gaussian, Inc., Wallingford CT, 2019.
 
 ******************************************
 Gaussian 16:  ES64L-G16RevC.01  3-Jul-2019
                21-Mar-2024 
 ******************************************
 %chk=PbiLmL_to_HbiL2_IRCForward.chk
 %mem=1600MB
 %nprocs=4
 Will use up to    4 processors via shared memory.
 ----------------------------------------------------------------------
 # irc=(forward,calcfc,maxpoints=100,maxcycle=100) wb97xd/def2tzvpp geo
 m=connectivity
 ----------------------------------------------------------------------
 1/6=100,10=4,18=10,22=1,26=3,38=1,42=100,44=3,57=2,172=1/1,23;
 2/12=2,17=6,18=5,29=1,40=1/2;
 3/5=44,7=202,11=2,25=1,30=1,71=2,74=-58,140=1/1,2,3;
 4//1;
 5/5=2,38=5/2;
 8/6=4,10=90,11=11/1;
 11/6=1,8=1,9=11,15=111,16=1/1,2,10;
 10/6=1,13=1/2;
 6/7=2,8=2,9=2,10=2,28=1/1;
 7/10=1,25=1/1,2,3,16;
 1/6=100,10=4,18=10,22=1,26=3,42=100,44=3/23(2);
 2/29=1/2;
 99/5=20/99;
 2/29=1/2;
 3/5=44,7=202,11=2,25=1,30=1,71=2,74=-58,140=1/1,2,3;
 4/5=5,16=3,69=1/1;
 5/5=2,38=5/2;
 8/6=4,10=90,11=11/1;
 11/6=1,8=1,9=11,15=111,16=1/1,2,10;
 10/6=1,13=1/2;
 7/10=1,25=1/1,2,3,16;
 1/6=100,18=10,22=1,26=3,42=100,44=3/23(-8);
 2/29=1/2;
 6/7=2,8=2,9=2,10=2,19=2,28=1/1;
 99/5=20,9=1/99;
 ----------------------------------------------------------------------
 Modify TS discovered for PmonoL1 to HBiL3 into potential PL3 to HL3 TS
  opt Unfreeze Result of previous job and optimize to a TS
 ----------------------------------------------------------------------
 Symbolic Z-matrix:
 Charge = -2 Multiplicity = 1
 Si                    0.16115   0.44966  -0.06861 
 O                    -0.60847   1.39734  -1.31876 
 O                     1.02092  -0.59688   1.19337 
 O                     1.67729   0.50446  -0.92497 
 O                    -0.52619  -1.06178  -0.66192 
 O                    -2.0771    0.48367   0.854 
 O                     0.19827   1.74158   1.07541 
 C                    -2.59174  -0.70352   0.4752 
 H                    -3.69811  -0.68243   0.26289 
 H                    -2.45913  -1.50978   1.24373 
 C                    -1.88777  -1.18255  -0.80775 
 H                    -2.2587   -0.57311  -1.6554 
 H                    -2.14906  -2.23882  -1.01804 
 C                     2.69892  -0.23794  -0.36951 
 H                     3.28906  -0.74792  -1.15498 
 H                     3.39908   0.41194   0.19366 
 C                     2.0632   -1.24775   0.60011 
 H                     1.73829  -2.14207   0.02624 
 H                     2.81318  -1.59171   1.34214 
 H                    -0.65915   1.64891   1.49733 
 H                    -1.44503   1.61319  -0.90246 
 
 IRC-IRC-IRC-IRC-IRC-IRC-IRC-IRC-IRC-IRC-IRC-IRC-IRC-IRC-IRC-IRC-IRC-IRC
 ------------------------------------------------------------------------
 INPUT DATA FOR L123
 ------------------------------------------------------------------------
 GENERAL PARAMETERS:
 Rxn path following direction = Forward
 Maximum points per path      = 100
 Step size                    =   0.100 bohr
 Integration scheme           = HPC                                 
    Redo corrector integration= Yes                                 
    DWI Weight Power          =  2
    DWI will use Hessian update vectors when possible.
    Max correction cycles     = 100
 Initial Hessian              = CalcFC
 Hessian evaluation           = All updating
 Hessian updating method      = Bofill                              
 ------------------------------------------------------------------------
 IRC-IRC-IRC-IRC-IRC-IRC-IRC-IRC-IRC-IRC-IRC-IRC-IRC-IRC-IRC-IRC-IRC-IRC
                          Input orientation:                          
 ---------------------------------------------------------------------
 Center     Atomic      Atomic             Coordinates (Angstroms)
 Number     Number       Type             X           Y           Z
 ---------------------------------------------------------------------
      1         14           0        0.161150    0.449661   -0.068613
      2          8           0       -0.608469    1.397335   -1.318762
      3          8           0        1.020923   -0.596878    1.193373
      4          8           0        1.677287    0.504460   -0.924965
      5          8           0       -0.526188   -1.061775   -0.661915
      6          8           0       -2.077096    0.483670    0.854001
      7          8           0        0.198268    1.741577    1.075410
      8          6           0       -2.591740   -0.703523    0.475201
      9          1           0       -3.698108   -0.682432    0.262894
     10          1           0       -2.459126   -1.509781    1.243728
     11          6           0       -1.887769   -1.182549   -0.807747
     12          1           0       -2.258695   -0.573110   -1.655401
     13          1           0       -2.149060   -2.238818   -1.018037
     14          6           0        2.698920   -0.237938   -0.369510
     15          1           0        3.289064   -0.747919   -1.154980
     16          1           0        3.399083    0.411938    0.193657
     17          6           0        2.063196   -1.247752    0.600114
     18          1           0        1.738287   -2.142068    0.026238
     19          1           0        2.813181   -1.591714    1.342142
     20          1           0       -0.659150    1.648914    1.497328
     21          1           0       -1.445028    1.613186   -0.902462
 ---------------------------------------------------------------------
                    Distance matrix (angstroms):
                    1          2          3          4          5
     1  Si   0.000000
     2  O    1.747361   0.000000
     3  O    1.851233   3.597586   0.000000
     4  O    1.742129   2.485354   2.476109   0.000000
     5  O    1.763202   2.546653   2.460036   2.716172   0.000000
     6  O    2.421181   2.777147   3.298557   4.154581   2.663028
     7  O    1.726040   2.549782   2.481743   2.778391   3.376672
     8  C    3.033805   3.400775   3.684899   4.652341   2.384928
     9  H    4.035518   4.046348   4.810651   5.631571   3.325695
    10  H    3.525266   4.294486   3.598148   5.086286   2.751079
    11  C    2.721856   2.924645   3.578824   3.945803   1.374684
    12  H    3.069138   2.592147   4.344188   4.145678   2.056061
    13  H    3.669659   3.960488   4.199416   4.709052   2.036165
    14  C    2.646433   3.809727   2.321016   1.379645   3.341486
    15  H    3.521113   4.451932   3.268339   2.054066   3.859762
    16  H    3.248756   4.395326   2.769980   2.055348   4.279204
    17  C    2.635562   4.220944   1.364524   2.354791   2.886557
    18  H    3.035361   4.454623   2.065049   2.812938   2.601622
    19  H    3.631902   5.265217   2.055242   3.289981   3.930454
    20  H    2.136181   2.827759   2.821102   3.554746   3.468118
    21  H    2.151488   0.959025   3.918906   3.313402   2.838582
                    6          7          8          9         10
     6  O    0.000000
     7  O    2.609336   0.000000
     8  C    1.348249   3.758046   0.000000
     9  H    2.082518   4.660230   1.126752   0.000000
    10  H    2.066805   4.202547   1.121727   1.783709   0.000000
    11  C    2.360834   4.055656   1.539804   2.161878   2.154549
    12  H    2.728894   4.341863   2.160415   2.400774   3.053273
    13  H    3.304791   5.073067   2.186974   2.542178   2.396501
    14  C    4.982773   3.501362   5.377861   6.443561   5.552077
    15  H    5.860758   4.552499   6.102730   7.129883   6.275024
    16  H    5.516315   3.576401   6.100285   7.181404   6.254140
    17  C    4.494919   3.555271   4.688306   5.798787   4.575401
    18  H    4.704980   4.307565   4.584770   5.633909   4.415919
    19  H    5.334820   4.244967   5.545597   6.662466   5.273862
    20  H    1.944797   0.960087   3.211481   4.024210   3.644390
    21  H    2.181852   2.574662   2.929171   3.421153   3.922684
                   11         12         13         14         15
    11  C    0.000000
    12  H    1.107935   0.000000
    13  H    1.108241   1.786851   0.000000
    14  C    4.703409   5.132621   5.284602   0.000000
    15  H    5.206637   5.573025   5.640454   1.106939   0.000000
    16  H    5.612130   6.033224   6.267105   1.108929   1.782188
    17  C    4.194812   4.921507   4.619927   1.537544   2.198395
    18  H    3.842459   4.611443   4.026331   2.169134   2.396630
    19  H    5.185400   5.978858   5.532904   2.185296   2.678446
    20  H    3.852280   4.175600   4.864294   4.280412   5.326156
    21  H    2.832159   2.451298   3.917519   4.569792   5.296245
                   16         17         18         19         20
    16  H    0.000000
    17  C    2.168956   0.000000
    18  H    3.051101   1.111171   0.000000
    19  H    2.382629   1.109681   1.786026   0.000000
    20  H    4.438347   4.075148   4.720525   4.752140   0.000000
    21  H    5.109783   4.769731   5.009782   5.782904   2.525445
                   21
    21  H    0.000000
 Symmetry turned off by external request.
 Stoichiometry    C4H10O6Si(2-)
 Framework group  C1[X(C4H10O6Si)]
 Deg. of freedom    57
 Full point group                 C1      NOp   1
 Rotational constants (GHZ):           1.6300313           0.8425838           0.7771140
 Standard basis: def2TZVPP (5D, 7F)
   492 basis functions,   749 primitive gaussians,   558 cartesian basis functions
    49 alpha electrons       49 beta electrons
       nuclear repulsion energy       871.6436431792 Hartrees.
 NAtoms=   21 NActive=   21 NUniq=   21 SFac= 1.00D+00 NAtFMM=   60 NAOKFM=F Big=F
 Integral buffers will be    131072 words long.
 Raffenetti 2 integral format.
 Two-electron integral symmetry is turned off.
 Nuclear repulsion after empirical dispersion term =      871.6315313497 Hartrees.
 One-electron integrals computed using PRISM.
   1 Symmetry operations used in ECPInt.
 ECPInt:  NShTT=   17020 NPrTT=   47563 LenC2=   16205 LenP2D=   35039.
 LDataN:  DoStor=T MaxTD1= 6 Len=  172
 NBasis=   492 RedAO= T EigKep=  2.58D-04  NBF=   492
 NBsUse=   492 1.00D-06 EigRej= -1.00D+00 NBFU=   492
 ExpMin= 7.01D-02 ExpMax= 4.48D+04 ExpMxC= 1.53D+03 IAcc=3 IRadAn=         5 AccDes= 0.00D+00
 Harris functional with IExCor= 4639 and IRadAn=       5 diagonalized for initial guess.
 HarFok:  IExCor= 4639 AccDes= 0.00D+00 IRadAn=         5 IDoV= 1 UseB2=F ITyADJ=14
 ICtDFT=  3500011 ScaDFX=  1.000000  1.000000  1.000000  1.000000
 FoFCou: FMM=F IPFlag=           0 FMFlag=      100000 FMFlg1=           0
         NFxFlg=           0 DoJE=T BraDBF=F KetDBF=T FulRan=T
         wScrn=  0.000000 ICntrl=       500 IOpCl=  0 I1Cent=   200000004 NGrid=           0
         NMat0=    1 NMatS0=      1 NMatT0=    0 NMatD0=    1 NMtDS0=    0 NMtDT0=    0
 Symmetry not used in FoFCou.
 Requested convergence on RMS density matrix=1.00D-08 within 128 cycles.
 Requested convergence on MAX density matrix=1.00D-06.
 Requested convergence on             energy=1.00D-06.
 No special actions if energy rises.
 Integral accuracy reduced to 1.0D-05 until final iterations.
 Initial convergence to 1.0D-05 achieved.  Increase integral accuracy.
 SCF Done:  E(RwB97XD) =  -899.450148026     A.U. after   16 cycles
            NFock= 16  Conv=0.30D-08     -V/T= 2.0035
 DoSCS=F DFT=T ScalE2(SS,OS)=  1.000000  1.000000
 Range of M.O.s used for correlation:     1   492
 NBasis=   492 NAE=    49 NBE=    49 NFC=     0 NFV=     0
 NROrb=    492 NOA=    49 NOB=    49 NVA=   443 NVB=   443

 **** Warning!!: The largest alpha MO coefficient is  0.10702145D+02

   1 Symmetry operations used in ECPInt.
 ECPInt:  NShTT=   17020 NPrTT=   47563 LenC2=   16205 LenP2D=   35039.
 LDataN:  DoStor=T MaxTD1= 7 Len=  274
 Symmetrizing basis deriv contribution to polar:
 IMax=3 JMax=2 DiffMx= 0.00D+00
 G2DrvN: will do    22 centers at a time, making    1 passes.
 Calling FoFCou, ICntrl=  3107 FMM=F I1Cent=   0 AccDes= 0.00D+00.
 End of G2Drv F.D. properties file   721 does not exist.
 End of G2Drv F.D. properties file   722 does not exist.
 End of G2Drv F.D. properties file   788 does not exist.
          IDoAtm=111111111111111111111
          Differentiating once with respect to nuclear coordinates.
 CalDSu exits because no D1Ps are significant.
          There are    66 degrees of freedom in the 1st order CPHF.  IDoFFX=6 NUNeed=     0.
     60 vectors produced by pass  0 Test12= 3.29D-14 1.52D-09 XBig12= 9.04D-02 3.82D-02.
 AX will form    60 AO Fock derivatives at one time.
     60 vectors produced by pass  1 Test12= 3.29D-14 1.52D-09 XBig12= 3.18D-02 2.18D-02.
     60 vectors produced by pass  2 Test12= 3.29D-14 1.52D-09 XBig12= 6.23D-04 3.18D-03.
     60 vectors produced by pass  3 Test12= 3.29D-14 1.52D-09 XBig12= 9.91D-06 3.73D-04.
     60 vectors produced by pass  4 Test12= 3.29D-14 1.52D-09 XBig12= 1.33D-07 3.60D-05.
     60 vectors produced by pass  5 Test12= 3.29D-14 1.52D-09 XBig12= 1.36D-09 3.28D-06.
     60 vectors produced by pass  6 Test12= 3.29D-14 1.52D-09 XBig12= 1.16D-11 2.96D-07.
     33 vectors produced by pass  7 Test12= 3.29D-14 1.52D-09 XBig12= 7.91D-14 2.58D-08.
      3 vectors produced by pass  8 Test12= 3.29D-14 1.52D-09 XBig12= 7.84D-16 1.96D-09.
 InvSVY:  IOpt=1 It=  1 EMax= 1.67D-16
 Solved reduced A of dimension   456 with    66 vectors.
 End of Minotr F.D. properties file   721 does not exist.
 End of Minotr F.D. properties file   722 does not exist.
 End of Minotr F.D. properties file   788 does not exist.

 **********************************************************************

            Population analysis using the SCF Density.

 **********************************************************************

 Alpha  occ. eigenvalues --  -65.97560 -18.90599 -18.88895 -18.87888 -18.86959
 Alpha  occ. eigenvalues --  -18.86712 -18.84904 -10.03508 -10.02531 -10.01376
 Alpha  occ. eigenvalues --  -10.00835  -5.08213  -3.42978  -3.42663  -3.42625
 Alpha  occ. eigenvalues --   -0.81034  -0.77571  -0.74468  -0.73551  -0.71497
 Alpha  occ. eigenvalues --   -0.70641  -0.51048  -0.48452  -0.38979  -0.36620
 Alpha  occ. eigenvalues --   -0.29774  -0.27969  -0.25922  -0.25211  -0.23719
 Alpha  occ. eigenvalues --   -0.22094  -0.21194  -0.19384  -0.17646  -0.17360
 Alpha  occ. eigenvalues --   -0.16292  -0.16026  -0.10939  -0.08862  -0.07453
 Alpha  occ. eigenvalues --   -0.07330  -0.06567  -0.04835  -0.03837  -0.02287
 Alpha  occ. eigenvalues --   -0.01655   0.00221   0.01316   0.02170
 Alpha virt. eigenvalues --    0.37124   0.38260   0.40851   0.41209   0.42168
 Alpha virt. eigenvalues --    0.42780   0.42826   0.46128   0.46809   0.47306
 Alpha virt. eigenvalues --    0.49458   0.49743   0.51544   0.53249   0.53519
 Alpha virt. eigenvalues --    0.54318   0.54960   0.55427   0.55914   0.57494
 Alpha virt. eigenvalues --    0.59066   0.62117   0.65633   0.66272   0.67581
 Alpha virt. eigenvalues --    0.68735   0.69248   0.69711   0.70903   0.71244
 Alpha virt. eigenvalues --    0.72110   0.72318   0.74294   0.74499   0.74848
 Alpha virt. eigenvalues --    0.75880   0.76494   0.77184   0.77768   0.78558
 Alpha virt. eigenvalues --    0.79404   0.79576   0.80509   0.81917   0.82443
 Alpha virt. eigenvalues --    0.84020   0.84387   0.84641   0.85598   0.87630
 Alpha virt. eigenvalues --    0.88284   0.89470   0.89561   0.91466   0.92845
 Alpha virt. eigenvalues --    0.93859   0.96040   0.96397   0.98417   0.99105
 Alpha virt. eigenvalues --    1.02175   1.02923   1.05002   1.05198   1.05648
 Alpha virt. eigenvalues --    1.06603   1.09732   1.10512   1.11997   1.12706
 Alpha virt. eigenvalues --    1.13079   1.14333   1.16010   1.16579   1.18094
 Alpha virt. eigenvalues --    1.19585   1.19987   1.20678   1.21521   1.22309
 Alpha virt. eigenvalues --    1.22880   1.24476   1.25430   1.26725   1.29059
 Alpha virt. eigenvalues --    1.31567   1.32225   1.33202   1.34433   1.34462
 Alpha virt. eigenvalues --    1.37610   1.39327   1.39770   1.40684   1.41687
 Alpha virt. eigenvalues --    1.42253   1.42553   1.44167   1.45625   1.46970
 Alpha virt. eigenvalues --    1.48206   1.48761   1.49594   1.51261   1.52723
 Alpha virt. eigenvalues --    1.54528   1.54971   1.55849   1.57369   1.57481
 Alpha virt. eigenvalues --    1.59370   1.60801   1.62068   1.62560   1.64161
 Alpha virt. eigenvalues --    1.65450   1.66075   1.68211   1.69121   1.70644
 Alpha virt. eigenvalues --    1.71117   1.72198   1.74250   1.75084   1.77011
 Alpha virt. eigenvalues --    1.77420   1.78367   1.79268   1.81704   1.82045
 Alpha virt. eigenvalues --    1.84738   1.86784   1.87195   1.87647   1.90182
 Alpha virt. eigenvalues --    1.91218   1.91769   1.92624   1.96132   1.96836
 Alpha virt. eigenvalues --    1.98171   2.00314   2.02636   2.04322   2.09276
 Alpha virt. eigenvalues --    2.10161   2.13436   2.18096   2.19213   2.21952
 Alpha virt. eigenvalues --    2.24453   2.26280   2.26940   2.31519   2.31711
 Alpha virt. eigenvalues --    2.34522   2.35463   2.37735   2.38653   2.40037
 Alpha virt. eigenvalues --    2.40746   2.41947   2.42682   2.44976   2.46967
 Alpha virt. eigenvalues --    2.47791   2.47995   2.51269   2.52184   2.54265
 Alpha virt. eigenvalues --    2.56743   2.57581   2.60281   2.61042   2.64820
 Alpha virt. eigenvalues --    2.65347   2.67869   2.69949   2.70317   2.71363
 Alpha virt. eigenvalues --    2.75072   2.76229   2.77092   2.80964   2.83099
 Alpha virt. eigenvalues --    2.84768   2.85699   2.87868   2.93331   2.94984
 Alpha virt. eigenvalues --    2.97443   2.98878   3.00632   3.01718   3.02686
 Alpha virt. eigenvalues --    3.03639   3.04389   3.06416   3.11294   3.13598
 Alpha virt. eigenvalues --    3.16000   3.17918   3.18549   3.19647   3.21318
 Alpha virt. eigenvalues --    3.21891   3.24246   3.25905   3.27563   3.29073
 Alpha virt. eigenvalues --    3.31646   3.32100   3.33231   3.34000   3.35776
 Alpha virt. eigenvalues --    3.37354   3.38571   3.39904   3.40801   3.41787
 Alpha virt. eigenvalues --    3.44033   3.45373   3.47408   3.48639   3.49881
 Alpha virt. eigenvalues --    3.50622   3.51337   3.52116   3.52703   3.53287
 Alpha virt. eigenvalues --    3.54500   3.56974   3.58361   3.60178   3.62989
 Alpha virt. eigenvalues --    3.63414   3.63993   3.67322   3.68240   3.69729
 Alpha virt. eigenvalues --    3.71379   3.74404   3.75248   3.75660   3.78658
 Alpha virt. eigenvalues --    3.79398   3.81389   3.82637   3.83761   3.87088
 Alpha virt. eigenvalues --    3.88470   3.89297   3.91330   3.91948   3.92800
 Alpha virt. eigenvalues --    3.94604   3.95305   3.95940   3.97971   3.99050
 Alpha virt. eigenvalues --    4.00365   4.00579   4.04853   4.05054   4.07078
 Alpha virt. eigenvalues --    4.09352   4.10650   4.11208   4.12694   4.14238
 Alpha virt. eigenvalues --    4.15073   4.17095   4.18013   4.19851   4.20221
 Alpha virt. eigenvalues --    4.21567   4.23186   4.25780   4.30277   4.31263
 Alpha virt. eigenvalues --    4.33383   4.35440   4.36006   4.36697   4.38639
 Alpha virt. eigenvalues --    4.40710   4.41122   4.42556   4.44790   4.45809
 Alpha virt. eigenvalues --    4.47437   4.49994   4.50197   4.52534   4.54054
 Alpha virt. eigenvalues --    4.55641   4.56149   4.57207   4.60800   4.62580
 Alpha virt. eigenvalues --    4.64002   4.64965   4.66436   4.67248   4.69030
 Alpha virt. eigenvalues --    4.69204   4.69777   4.72515   4.73309   4.75830
 Alpha virt. eigenvalues --    4.76774   4.80828   4.83180   4.86155   4.92300
 Alpha virt. eigenvalues --    4.94658   4.95661   4.97565   5.01530   5.02481
 Alpha virt. eigenvalues --    5.02712   5.04337   5.06244   5.09267   5.13264
 Alpha virt. eigenvalues --    5.15595   5.17197   5.18084   5.19302   5.22769
 Alpha virt. eigenvalues --    5.24776   5.28450   5.29739   5.30590   5.33079
 Alpha virt. eigenvalues --    5.36189   5.36989   5.38340   5.40036   5.41197
 Alpha virt. eigenvalues --    5.43268   5.44989   5.47536   5.48874   5.52215
 Alpha virt. eigenvalues --    5.52872   5.58375   5.61793   5.63273   5.63846
 Alpha virt. eigenvalues --    5.66049   5.67612   5.70278   5.71844   5.72908
 Alpha virt. eigenvalues --    5.75238   5.78266   5.79324   5.80804   5.82665
 Alpha virt. eigenvalues --    5.84349   5.85402   5.87116   5.87343   5.90133
 Alpha virt. eigenvalues --    5.91185   5.93424   5.94372   5.95501   5.98233
 Alpha virt. eigenvalues --    5.99209   6.00545   6.02815   6.04972   6.08753
 Alpha virt. eigenvalues --    6.10858   6.12757   6.13998   6.15942   6.26751
 Alpha virt. eigenvalues --    6.38175   6.38873   6.43958   6.48299   6.49837
 Alpha virt. eigenvalues --    6.51552   6.52864   6.55040   6.61084   6.62710
 Alpha virt. eigenvalues --    6.64807   6.66499   6.69915   6.87707   6.91357
 Alpha virt. eigenvalues --    6.95611   6.96817   6.99151   7.00972   7.02588
 Alpha virt. eigenvalues --    7.04467   7.06416   7.08161   7.10149   7.11837
 Alpha virt. eigenvalues --    7.12996   7.15228   7.18258   7.19198   7.21761
 Alpha virt. eigenvalues --    7.23771   7.29762   7.32614   7.33741   7.39444
 Alpha virt. eigenvalues --    7.41091   7.43840   7.45633   7.47477   7.48850
 Alpha virt. eigenvalues --    7.56275   7.59648   7.62440   7.66440   7.69722
 Alpha virt. eigenvalues --    7.77302   7.79458   7.84070   7.91168   7.94613
 Alpha virt. eigenvalues --    8.03316   8.07183  12.38999  23.67980  23.72454
 Alpha virt. eigenvalues --   23.81201  23.83771  44.26981  44.34636  44.49180
 Alpha virt. eigenvalues --   44.53796  44.63959  44.69532
          Condensed to atoms (all electrons):
               1          2          3          4          5          6
     1  Si  11.519576   0.395915   0.293681   0.383967   0.325220   0.118236
     2  O    0.395915   8.034110   0.005859  -0.037325  -0.068004  -0.037719
     3  O    0.293681   0.005859   8.183397  -0.038312  -0.057457  -0.005994
     4  O    0.383967  -0.037325  -0.038312   8.042423  -0.029405   0.000489
     5  O    0.325220  -0.068004  -0.057457  -0.029405   8.106812  -0.014878
     6  O    0.118236  -0.037719  -0.005994   0.000489  -0.014878   8.531484
     7  O    0.428023  -0.074572  -0.072994  -0.023186  -0.003601  -0.057515
     8  C   -0.041710  -0.001707   0.005300  -0.001525  -0.116683   0.432628
     9  H    0.010547  -0.000910  -0.000063   0.000026   0.008091  -0.043998
    10  H   -0.006674  -0.000748   0.001249  -0.000024   0.020624  -0.074859
    11  C   -0.042319   0.004431   0.002855   0.001022   0.351234  -0.200074
    12  H   -0.013485   0.026899  -0.000759   0.000485  -0.061955   0.016970
    13  H    0.009443   0.000838  -0.000906  -0.000211  -0.042130   0.015400
    14  C   -0.074994   0.004141  -0.137673   0.372235  -0.006966  -0.000926
    15  H    0.000511  -0.000019   0.009951  -0.050447   0.000585   0.000002
    16  H    0.008239   0.000044   0.015598  -0.065708  -0.000343   0.000028
    17  C   -0.054430  -0.003133   0.413598  -0.110486   0.000262  -0.001483
    18  H    0.014442   0.000292  -0.069598   0.011030   0.022304   0.000457
    19  H   -0.009500   0.000033  -0.046868   0.006510  -0.000093  -0.000052
    20  H   -0.062717   0.006443   0.006354   0.002031  -0.001870   0.023997
    21  H   -0.078173   0.318360  -0.000111   0.003925   0.007583   0.037794
               7          8          9         10         11         12
     1  Si   0.428023  -0.041710   0.010547  -0.006674  -0.042319  -0.013485
     2  O   -0.074572  -0.001707  -0.000910  -0.000748   0.004431   0.026899
     3  O   -0.072994   0.005300  -0.000063   0.001249   0.002855  -0.000759
     4  O   -0.023186  -0.001525   0.000026  -0.000024   0.001022   0.000485
     5  O   -0.003601  -0.116683   0.008091   0.020624   0.351234  -0.061955
     6  O   -0.057515   0.432628  -0.043998  -0.074859  -0.200074   0.016970
     7  O    8.012231   0.004895  -0.000800   0.000856  -0.005798   0.000630
     8  C    0.004895   4.847457   0.171332   0.356017   0.267162  -0.097086
     9  H   -0.000800   0.171332   1.139999  -0.139946  -0.036350  -0.012530
    10  H    0.000856   0.356017  -0.139946   1.031417  -0.133748   0.029755
    11  C   -0.005798   0.267162  -0.036350  -0.133748   5.102001   0.337344
    12  H    0.000630  -0.097086  -0.012530   0.029755   0.337344   0.897977
    13  H   -0.000081  -0.015090   0.023702  -0.011041   0.245590  -0.084078
    14  C    0.002142  -0.000359  -0.000023   0.000077   0.002048  -0.000331
    15  H   -0.000317   0.000008  -0.000001  -0.000005   0.000084   0.000025
    16  H    0.000862  -0.000045   0.000001  -0.000004  -0.000070  -0.000002
    17  C   -0.000140   0.000511  -0.000107   0.001128  -0.004141  -0.000155
    18  H   -0.000909  -0.000766   0.000047   0.000018  -0.000171   0.000619
    19  H   -0.000552   0.000139  -0.000005  -0.000007   0.000298  -0.000002
    20  H    0.325812   0.002780  -0.000716  -0.002315   0.004332  -0.000785
    21  H   -0.000234   0.005792  -0.004096   0.003266  -0.017719   0.006704
              13         14         15         16         17         18
     1  Si   0.009443  -0.074994   0.000511   0.008239  -0.054430   0.014442
     2  O    0.000838   0.004141  -0.000019   0.000044  -0.003133   0.000292
     3  O   -0.000906  -0.137673   0.009951   0.015598   0.413598  -0.069598
     4  O   -0.000211   0.372235  -0.050447  -0.065708  -0.110486   0.011030
     5  O   -0.042130  -0.006966   0.000585  -0.000343   0.000262   0.022304
     6  O    0.015400  -0.000926   0.000002   0.000028  -0.001483   0.000457
     7  O   -0.000081   0.002142  -0.000317   0.000862  -0.000140  -0.000909
     8  C   -0.015090  -0.000359   0.000008  -0.000045   0.000511  -0.000766
     9  H    0.023702  -0.000023  -0.000001   0.000001  -0.000107   0.000047
    10  H   -0.011041   0.000077  -0.000005  -0.000004   0.001128   0.000018
    11  C    0.245590   0.002048   0.000084  -0.000070  -0.004141  -0.000171
    12  H   -0.084078  -0.000331   0.000025  -0.000002  -0.000155   0.000619
    13  H    0.914475  -0.000320   0.000018   0.000000   0.000545  -0.000241
    14  C   -0.000320   4.964798   0.285390   0.347258   0.227422  -0.123128
    15  H    0.000018   0.285390   0.924701  -0.118523  -0.005298  -0.011343
    16  H    0.000000   0.347258  -0.118523   0.909221  -0.060552   0.026277
    17  C    0.000545   0.227422  -0.005298  -0.060552   4.845252   0.371195
    18  H   -0.000241  -0.123128  -0.011343   0.026277   0.371195   0.919034
    19  H   -0.000118   0.008150   0.015479  -0.028151   0.270179  -0.121261
    20  H   -0.000272  -0.000672   0.000048   0.000033  -0.000675   0.000064
    21  H    0.000592  -0.001130   0.000023   0.000089  -0.000035   0.000125
              19         20         21
     1  Si  -0.009500  -0.062717  -0.078173
     2  O    0.000033   0.006443   0.318360
     3  O   -0.046868   0.006354  -0.000111
     4  O    0.006510   0.002031   0.003925
     5  O   -0.000093  -0.001870   0.007583
     6  O   -0.000052   0.023997   0.037794
     7  O   -0.000552   0.325812  -0.000234
     8  C    0.000139   0.002780   0.005792
     9  H   -0.000005  -0.000716  -0.004096
    10  H   -0.000007  -0.002315   0.003266
    11  C    0.000298   0.004332  -0.017719
    12  H   -0.000002  -0.000785   0.006704
    13  H   -0.000118  -0.000272   0.000592
    14  C    0.008150  -0.000672  -0.001130
    15  H    0.015479   0.000048   0.000023
    16  H   -0.028151   0.000033   0.000089
    17  C    0.270179  -0.000675  -0.000035
    18  H   -0.121261   0.000064   0.000125
    19  H    0.958486   0.000076  -0.000019
    20  H    0.000076   0.528332  -0.001390
    21  H   -0.000019  -0.001390   0.582461
 Mulliken charges:
               1
     1  Si   0.876202
     2  O   -0.573228
     3  O   -0.507107
     4  O   -0.467516
     5  O   -0.439329
     6  O   -0.739987
     7  O   -0.534751
     8  C    0.180951
     9  H   -0.114200
    10  H   -0.075036
    11  C    0.121991
    12  H   -0.046241
    13  H   -0.056117
    14  C    0.132860
    15  H   -0.050870
    16  H   -0.034251
    17  C    0.110542
    18  H   -0.038487
    19  H   -0.052725
    20  H    0.171109
    21  H    0.136193
 Sum of Mulliken charges =  -2.00000
 Mulliken charges with hydrogens summed into heavy atoms:
               1
     1  Si   0.876202
     2  O   -0.437035
     3  O   -0.507107
     4  O   -0.467516
     5  O   -0.439329
     6  O   -0.739987
     7  O   -0.363643
     8  C   -0.008285
    11  C    0.019632
    14  C    0.047738
    17  C    0.019330
 APT charges:
               1
     1  Si   0.008239
     2  O   -0.525801
     3  O   -0.399216
     4  O   -0.370762
     5  O   -0.394681
     6  O   -0.599651
     7  O   -0.533884
     8  C   -0.573614
     9  H    0.248889
    10  H    0.171330
    11  C   -0.392778
    12  H    0.198674
    13  H    0.284702
    14  C   -0.528121
    15  H    0.341866
    16  H    0.343473
    17  C   -0.442018
    18  H    0.167440
    19  H    0.339137
    20  H    0.324216
    21  H    0.332560
 Sum of APT charges =  -2.00000
 APT charges with hydrogens summed into heavy atoms:
               1
     1  Si   0.008239
     2  O   -0.193241
     3  O   -0.399216
     4  O   -0.370762
     5  O   -0.394681
     6  O   -0.599651
     7  O   -0.209669
     8  C   -0.153395
    11  C    0.090599
    14  C    0.157218
    17  C    0.064559
 Electronic spatial extent (au):  <R**2>=           1790.6178
 Charge=             -2.0000 electrons
 Dipole moment (field-independent basis, Debye):
    X=              1.5656    Y=             -2.6119    Z=             -0.6057  Tot=              3.1048
 Quadrupole moment (field-independent basis, Debye-Ang):
   XX=           -107.7105   YY=            -96.5343   ZZ=            -96.1183
   XY=             -2.3329   XZ=              2.2800   YZ=              1.6408
 Traceless Quadrupole moment (field-independent basis, Debye-Ang):
   XX=             -7.5895   YY=              3.5867   ZZ=              4.0027
   XY=             -2.3329   XZ=              2.2800   YZ=              1.6408
 Octapole moment (field-independent basis, Debye-Ang**2):
  XXX=             29.1496  YYY=              4.6753  ZZZ=              3.9019  XYY=             -1.5443
  XXY=             14.0275  XXZ=            -10.3155  XZZ=              0.7143  YZZ=             -2.2922
  YYZ=              0.5509  XYZ=              3.4006
 Hexadecapole moment (field-independent basis, Debye-Ang**3):
 XXXX=          -1772.9948 YYYY=           -649.2919 ZZZZ=           -461.3519 XXXY=            -20.2413
 XXXZ=             41.5148 YYYX=            -19.9775 YYYZ=             -1.6466 ZZZX=            -10.9940
 ZZZY=             15.6686 XXYY=           -381.2027 XXZZ=           -359.8572 YYZZ=           -195.5688
 XXYZ=             -0.0031 YYXZ=             -9.5281 ZZXY=             -6.0896
 N-N= 8.716315313497D+02 E-N=-3.903231923719D+03  KE= 8.963016418628D+02
  Exact polarizability:       0.000       0.000       0.000       0.000       0.000       0.000
 Approx polarizability:     118.242       0.633     110.618       1.136       1.562     103.784
   1 Symmetry operations used in ECPInt.
 ECPInt:  NShTT=   17020 NPrTT=   47563 LenC2=   16205 LenP2D=   35039.
 LDataN:  DoStor=T MaxTD1= 8 Len=  415
 Calling FoFJK, ICntrl=    100127 FMM=F ISym2X=0 I1Cent= 0 IOpClX= 0 NMat=1 NMatS=1 NMatT=0.
 -------------------------------------------------------------------
 Center     Atomic                   Forces (Hartrees/Bohr)
 Number     Number              X              Y              Z
 -------------------------------------------------------------------
      1       14           0.000000556    0.000001212    0.000000385
      2        8           0.000001559   -0.000001127   -0.000001251
      3        8           0.000000099   -0.000000427    0.000000371
      4        8          -0.000000025   -0.000001069    0.000000277
      5        8           0.000000471   -0.000000915   -0.000000839
      6        8          -0.000001339   -0.000000169   -0.000000655
      7        8           0.000000295   -0.000000584   -0.000001097
      8        6           0.000000099    0.000001806   -0.000000309
      9        1          -0.000000428    0.000001184   -0.000000855
     10        1          -0.000000741    0.000000679   -0.000000126
     11        6          -0.000000584    0.000000001    0.000000416
     12        1           0.000001008    0.000001346   -0.000000674
     13        1          -0.000000227    0.000000462    0.000000112
     14        6           0.000000125   -0.000000359    0.000000961
     15        1           0.000000164   -0.000001388    0.000000958
     16        1           0.000000233   -0.000000810    0.000000589
     17        6          -0.000000310   -0.000000158    0.000001343
     18        1          -0.000000884   -0.000000772    0.000000875
     19        1          -0.000000565   -0.000000317    0.000001278
     20        1           0.000000430    0.000001259   -0.000001015
     21        1           0.000000065    0.000000144   -0.000000743
 -------------------------------------------------------------------
 Cartesian Forces:  Max     0.000001806 RMS     0.000000793
 IRC-IRC-IRC-IRC-IRC-IRC-IRC-IRC-IRC-IRC-IRC-IRC-IRC-IRC-IRC-IRC-IRC-IRC
          ******** Start new reaction path calculation ********
 Supplied step size of   0.1000 bohr.
    Integration on MW PES will use step size of   0.2934 sqrt(amu)*bohr.
 Point Number:   0          Path Number:   1
 Calculating another point on the path.
 IRC-IRC-IRC-IRC-IRC-IRC-IRC-IRC-IRC-IRC-IRC-IRC-IRC-IRC-IRC-IRC-IRC-IRC
                          Input orientation:                          
 ---------------------------------------------------------------------
 Center     Atomic      Atomic             Coordinates (Angstroms)
 Number     Number       Type             X           Y           Z
 ---------------------------------------------------------------------
      1         14           0        0.161691    0.417522   -0.072030
      2          8           0       -0.613358    1.364195   -1.318368
      3          8           0        1.022403   -0.627509    1.190344
      4          8           0        1.674935    0.473355   -0.928283
      5          8           0       -0.534542   -1.090809   -0.653141
      6          8           0       -2.111140    0.459424    0.853119
      7          8           0        0.182819    1.701557    1.077968
      8          6           0       -2.608415   -0.734028    0.474016
      9          1           0       -3.714940   -0.728573    0.255959
     10          1           0       -2.470019   -1.538220    1.244275
     11          6           0       -1.896221   -1.211097   -0.805137
     12          1           0       -2.262823   -0.601825   -1.654481
     13          1           0       -2.155183   -2.267565   -1.017089
     14          6           0        2.697187   -0.270491   -0.374473
     15          1           0        3.285508   -0.779690   -1.161511
     16          1           0        3.398013    0.378948    0.187933
     17          6           0        2.062227   -1.280232    0.595633
     18          1           0        1.735176   -2.174040    0.022092
     19          1           0        2.813245   -1.625343    1.336011
     20          1           0       -0.685094    1.611000    1.480351
     21          1           0       -1.452856    1.570861   -0.902287
 ---------------------------------------------------------------------
                    Distance matrix (angstroms):
                    1          2          3          4          5
     1  Si   0.000000
     2  O    1.746496   0.000000
     3  O    1.851082   3.596698   0.000000
     4  O    1.739597   2.486372   2.475132   0.000000
     5  O    1.759969   2.544756   2.457064   2.721048   0.000000
     6  O    2.454264   2.788784   3.333802   4.184250   2.675388
     7  O    1.723859   2.547574   2.478322   2.785666   3.362834
     8  C    3.049216   3.405207   3.702339   4.665973   2.387200
     9  H    4.055783   4.059310   4.829670   5.647815   3.327553
    10  H    3.533197   4.293989   3.609615   5.093828   2.747077
    11  C    2.724856   2.922545   3.583418   3.950405   1.375405
    12  H    3.069444   2.588232   4.345849   4.146000   2.056391
    13  H    3.670249   3.956978   4.202332   4.710661   2.035605
    14  C    2.644537   3.810885   2.319702   1.380221   3.345841
    15  H    3.518312   4.452190   3.267418   2.053889   3.866266
    16  H    3.246976   4.396675   2.767907   2.055200   4.281657
    17  C    2.634422   4.220800   1.364171   2.355288   2.887651
    18  H    3.033300   4.453263   2.065094   2.813457   2.604026
    19  H    3.631338   5.265423   2.055239   3.290488   3.930666
    20  H    2.133383   2.810496   2.830296   3.558862   3.445900
    21  H    2.150879   0.959475   3.916484   3.314857   2.826634
                    6          7          8          9         10
     6  O    0.000000
     7  O    2.618339   0.000000
     8  C    1.347341   3.753375   0.000000
     9  H    2.083293   4.666236   1.127819   0.000000
    10  H    2.066973   4.190628   1.122130   1.783851   0.000000
    11  C    2.363608   4.043766   1.539821   2.160207   2.153217
    12  H    2.727144   4.330475   2.160419   2.403016   3.053285
    13  H    3.306975   5.060578   2.186447   2.534165   2.396838
    14  C    5.015951   3.510072   5.392979   6.459308   5.561250
    15  H    5.892193   4.560540   6.116810   7.142696   6.284048
    16  H    5.549749   3.588722   6.115369   7.198981   6.263002
    17  C    4.528763   3.557512   4.704044   5.813378   4.585690
    18  H    4.734964   4.306384   4.598332   5.643389   4.425118
    19  H    5.369265   4.248999   5.561644   6.677418   5.284779
    20  H    1.937306   0.960930   3.195470   4.019043   3.627572
    21  H    2.179468   2.571755   2.922676   3.427236   3.912637
                   11         12         13         14         15
    11  C    0.000000
    12  H    1.107697   0.000000
    13  H    1.108201   1.786769   0.000000
    14  C    4.708462   5.133216   5.286469   0.000000
    15  H    5.211854   5.573027   5.642317   1.106722   0.000000
    16  H    5.616346   6.033363   6.268500   1.108706   1.782161
    17  C    4.199553   4.922328   4.621931   1.537484   2.198753
    18  H    3.846897   4.611590   4.027845   2.169384   2.397635
    19  H    5.189912   5.979724   5.534872   2.185144   2.678765
    20  H    3.828122   4.148855   4.841657   4.291877   5.334840
    21  H    2.818740   2.437705   3.903838   4.570780   5.295694
                   16         17         18         19         20
    16  H    0.000000
    17  C    2.168738   0.000000
    18  H    3.051275   1.111217   0.000000
    19  H    2.382693   1.109635   1.785969   0.000000
    20  H    4.456463   4.085306   4.723427   4.767927   0.000000
    21  H    5.112746   4.767422   5.004229   5.781464   2.503605
                   21
    21  H    0.000000
 Symmetry turned off by external request.
 Stoichiometry    C4H10O6Si(2-)
 Framework group  C1[X(C4H10O6Si)]
 Deg. of freedom    57
 Full point group                 C1      NOp   1
 Rotational constants (GHZ):           1.6351394           0.8375902           0.7732703
 Standard basis: def2TZVPP (5D, 7F)
   492 basis functions,   749 primitive gaussians,   558 cartesian basis functions
    49 alpha electrons       49 beta electrons
       nuclear repulsion energy       870.9244396430 Hartrees.
 NAtoms=   21 NActive=   21 NUniq=   21 SFac= 1.00D+00 NAtFMM=   60 NAOKFM=F Big=F
 Integral buffers will be    131072 words long.
 Raffenetti 2 integral format.
 Two-electron integral symmetry is turned off.
 Nuclear repulsion after empirical dispersion term =      870.9123253941 Hartrees.
 One-electron integrals computed using PRISM.
   1 Symmetry operations used in ECPInt.
 ECPInt:  NShTT=   17020 NPrTT=   47563 LenC2=   16205 LenP2D=   35022.
 LDataN:  DoStor=T MaxTD1= 6 Len=  172
 NBasis=   492 RedAO= T EigKep=  2.58D-04  NBF=   492
 NBsUse=   492 1.00D-06 EigRej= -1.00D+00 NBFU=   492
 Initial guess from the checkpoint file:  "PbiLmL_to_HbiL2_IRCForward.chk"
 B after Tr=    -0.014718   -0.059891   -0.002044
         Rot=    1.000000    0.000001   -0.000001   -0.000060 Ang=   0.01 deg.
 ExpMin= 7.01D-02 ExpMax= 4.48D+04 ExpMxC= 1.53D+03 IAcc=3 IRadAn=         5 AccDes= 0.00D+00
 Harris functional with IExCor= 4639 and IRadAn=       5 diagonalized for initial guess.
 HarFok:  IExCor= 4639 AccDes= 0.00D+00 IRadAn=         5 IDoV= 1 UseB2=F ITyADJ=14
 ICtDFT=  3500011 ScaDFX=  1.000000  1.000000  1.000000  1.000000
 FoFCou: FMM=F IPFlag=           0 FMFlag=      100000 FMFlg1=           0
         NFxFlg=           0 DoJE=T BraDBF=F KetDBF=T FulRan=T
         wScrn=  0.000000 ICntrl=       500 IOpCl=  0 I1Cent=   200000004 NGrid=           0
         NMat0=    1 NMatS0=      1 NMatT0=    0 NMatD0=    1 NMtDS0=    0 NMtDT0=    0
 Symmetry not used in FoFCou.
 Requested convergence on RMS density matrix=1.00D-08 within 128 cycles.
 Requested convergence on MAX density matrix=1.00D-06.
 Requested convergence on             energy=1.00D-06.
 No special actions if energy rises.
 Integral accuracy reduced to 1.0D-05 until final iterations.
 Initial convergence to 1.0D-05 achieved.  Increase integral accuracy.
 SCF Done:  E(RwB97XD) =  -899.450195411     A.U. after   12 cycles
            NFock= 12  Conv=0.60D-08     -V/T= 2.0035
 DoSCS=F DFT=T ScalE2(SS,OS)=  1.000000  1.000000
 Range of M.O.s used for correlation:     1   492
 NBasis=   492 NAE=    49 NBE=    49 NFC=     0 NFV=     0
 NROrb=    492 NOA=    49 NOB=    49 NVA=   443 NVB=   443

 **** Warning!!: The largest alpha MO coefficient is  0.10025766D+02

 Symmetrizing basis deriv contribution to polar:
 IMax=3 JMax=2 DiffMx= 0.00D+00
   1 Symmetry operations used in ECPInt.
 ECPInt:  NShTT=   17020 NPrTT=   47563 LenC2=   16205 LenP2D=   35022.
 LDataN:  DoStor=T MaxTD1= 7 Len=  274
 Calling FoFJK, ICntrl=      2127 FMM=F ISym2X=0 I1Cent= 0 IOpClX= 0 NMat=1 NMatS=1 NMatT=0.
 -------------------------------------------------------------------
 Center     Atomic                   Forces (Hartrees/Bohr)
 Number     Number              X              Y              Z
 -------------------------------------------------------------------
      1       14           0.000475463    0.000007970   -0.000067868
      2        8           0.000060966   -0.000041458    0.000052619
      3        8           0.000325282    0.000028234   -0.000079772
      4        8           0.000193988    0.000007224   -0.000091492
      5        8          -0.000020197    0.000054435    0.000302272
      6        8          -0.000932446    0.000188516   -0.000032587
      7        8          -0.000487123   -0.000335597    0.000191652
      8        6          -0.000236115    0.000063587   -0.000002698
      9        1           0.000049580   -0.000020266    0.000003535
     10        1          -0.000008842    0.000034419   -0.000004229
     11        6          -0.000014880    0.000100703    0.000102159
     12        1           0.000008885    0.000004254    0.000007513
     13        1           0.000000042    0.000009601    0.000009057
     14        6           0.000151921   -0.000029804   -0.000107367
     15        1           0.000008797   -0.000002156   -0.000010752
     16        1           0.000014646   -0.000003974   -0.000009749
     17        6           0.000174226   -0.000023379   -0.000087221
     18        1           0.000008246   -0.000000607   -0.000005006
     19        1           0.000016482   -0.000005500   -0.000011177
     20        1           0.000170229   -0.000009787   -0.000138427
     21        1           0.000040853   -0.000026417   -0.000020462
 -------------------------------------------------------------------
 Cartesian Forces:  Max     0.000932446 RMS     0.000178021
 IRC-IRC-IRC-IRC-IRC-IRC-IRC-IRC-IRC-IRC-IRC-IRC-IRC-IRC-IRC-IRC-IRC-IRC
 Pt  1 Step number   1 out of a maximum of 100
 Modified Bulirsch-Stoer Extrapolation Cycles:
    EPS =    0.000010000000000
      PEZero:  N= 2 I= 1 D=  7.64D-04 Err=  2.08D-02
      PEZero:  N= 3 I= 2 D=  7.64D-04 Err=  3.19D-02
      PEZero:  N= 3 I= 1 D=  1.53D-03 Err=  2.71D-02
      PEZero:  N= 4 I= 3 D=  3.82D-04 Err=  5.54D-02
      PEZero:  N= 4 I= 2 D=  1.15D-03 Err=  4.19D-02
      PEZero:  N= 4 I= 1 D=  1.91D-03 Err=  3.41D-02
      PEZero:  N= 5 I= 4 D=  3.82D-04 Err=  5.89D-02
      PEZero:  N= 5 I= 3 D=  7.64D-04 Err=  3.30D-02
      PEZero:  N= 5 I= 2 D=  1.53D-03 Err=  1.20D-02
      PEZero:  N= 5 I= 1 D=  2.29D-03 Err=  6.90D-04
      PEZero:  N= 6 I= 5 D=  1.91D-04 Err=  1.71D-02
      PEZero:  N= 6 I= 4 D=  5.73D-04 Err=  3.61D-02
      PEZero:  N= 7 I= 6 D=  1.91D-04 Err=  5.71D-04
      PEZero:  N= 7 I= 5 D=  3.82D-04 Err=  1.62D-02
      PEZero:  N= 8 I= 7 D=  9.55D-05 Err=  2.11D-04
      PEZero:  N= 8 I= 6 D=  2.87D-04 Err=  2.91D-04
      PEZero:  N= 9 I= 8 D=  9.55D-05 Err=  1.35D-04
      PEZero:  N= 9 I= 7 D=  1.91D-04 Err=  8.36D-06
      PEZero:  N= 9 I= 6 D=  3.82D-04 Err=  1.65D-02
 Maximum DWI energy   std dev =  0.000000520 at pt     3
 Maximum DWI gradient std dev =  0.373690251 at pt     5
 CORRECTOR INTEGRATION CONVERGENCE:
   Recorrection delta-x convergence threshold:    0.010000
   Delta-x Convergence Met
 Point Number:   1          Path Number:   1
   CHANGE IN THE REACTION COORDINATE =    0.29337
   NET REACTION COORDINATE UP TO THIS POINT =    0.29337
  # OF POINTS ALONG THE PATH =   1
  # OF STEPS =   1

 Calculating another point on the path.
 IRC-IRC-IRC-IRC-IRC-IRC-IRC-IRC-IRC-IRC-IRC-IRC-IRC-IRC-IRC-IRC-IRC-IRC
                          Input orientation:                          
 ---------------------------------------------------------------------
 Center     Atomic      Atomic             Coordinates (Angstroms)
 Number     Number       Type             X           Y           Z
 ---------------------------------------------------------------------
      1         14           0        0.169909    0.416966   -0.074402
      2          8           0       -0.610133    1.362636   -1.317302
      3          8           0        1.031713   -0.626581    1.188273
      4          8           0        1.680385    0.473687   -0.930662
      5          8           0       -0.535076   -1.088396   -0.643635
      6          8           0       -2.137263    0.466993    0.852910
      7          8           0        0.174568    1.692880    1.081461
      8          6           0       -2.617084   -0.732662    0.473835
      9          1           0       -3.723533   -0.742736    0.250250
     10          1           0       -2.472833   -1.534497    1.246012
     11          6           0       -1.896904   -1.207930   -0.801503
     12          1           0       -2.259223   -0.598802   -1.652482
     13          1           0       -2.153844   -2.264553   -1.014961
     14          6           0        2.703190   -0.271764   -0.378645
     15          1           0        3.289483   -0.780360   -1.167293
     16          1           0        3.404922    0.377111    0.182869
     17          6           0        2.068988   -1.281288    0.592092
     18          1           0        1.739636   -2.174605    0.019021
     19          1           0        2.821059   -1.627560    1.330795
     20          1           0       -0.702781    1.602945    1.465141
     21          1           0       -1.452143    1.561321   -0.901461
 ---------------------------------------------------------------------
                    Distance matrix (angstroms):
                    1          2          3          4          5
     1  Si   0.000000
     2  O    1.745726   0.000000
     3  O    1.850957   3.595907   0.000000
     4  O    1.737221   2.487206   2.474116   0.000000
     5  O    1.757027   2.543034   2.454381   2.725941   0.000000
     6  O    2.487057   2.800736   3.369092   4.213741   2.688101
     7  O    1.721627   2.545365   2.475077   2.793306   3.348888
     8  C    3.064235   3.409735   3.719596   4.679329   2.389570
     9  H    4.075439   4.072232   4.848272   5.663618   3.329380
    10  H    3.540591   4.293438   3.620702   5.100973   2.743114
    11  C    2.727761   2.920554   3.588032   3.954935   1.376149
    12  H    3.069658   2.584392   4.347519   4.146295   2.056735
    13  H    3.670834   3.953600   4.205350   4.712364   2.035102
    14  C    2.642806   3.811883   2.318397   1.380779   3.350146
    15  H    3.515642   4.452184   3.266476   2.053734   3.872513
    16  H    3.245471   4.398004   2.765927   2.055069   4.284204
    17  C    2.633397   4.220641   1.363823   2.355786   2.888836
    18  H    3.031338   4.451882   2.065112   2.814046   2.606392
    19  H    3.630876   5.265621   2.055245   3.290982   3.930994
    20  H    2.130335   2.794338   2.838293   3.562945   3.423212
    21  H    2.150495   0.959886   3.914517   3.316102   2.815757
                    6          7          8          9         10
     6  O    0.000000
     7  O    2.626708   0.000000
     8  C    1.346513   3.747770   0.000000
     9  H    2.083962   4.671010   1.128859   0.000000
    10  H    2.067147   4.177531   1.122499   1.784006   0.000000
    11  C    2.366479   4.031284   1.539813   2.158509   2.151896
    12  H    2.725396   4.318517   2.160372   2.405267   3.053264
    13  H    3.309163   5.047551   2.185817   2.525987   2.397235
    14  C    5.049008   3.519328   5.407815   6.474573   5.570028
    15  H    5.923402   4.569082   6.130506   7.154945   6.292618
    16  H    5.583265   3.601931   6.130319   7.216195   6.271564
    17  C    4.562572   3.560054   4.719560   5.827538   4.595635
    18  H    4.764847   4.305306   4.611623   5.652427   4.433976
    19  H    5.403748   4.253400   5.577510   6.691949   5.295388
    20  H    1.929496   0.961790   3.178412   4.012870   3.608967
    21  H    2.178247   2.568166   2.917341   3.434287   3.903528
                   11         12         13         14         15
    11  C    0.000000
    12  H    1.107464   0.000000
    13  H    1.108168   1.786691   0.000000
    14  C    4.713394   5.133727   5.288373   0.000000
    15  H    5.216822   5.572837   5.644099   1.106515   0.000000
    16  H    5.620561   6.033527   6.270013   1.108496   1.782134
    17  C    4.204258   4.923140   4.624040   1.537427   2.199085
    18  H    3.851253   4.611719   4.029442   2.169649   2.398601
    19  H    5.194416   5.980597   5.536966   2.185008   2.679107
    20  H    3.803238   4.121865   4.818094   4.302873   5.343035
    21  H    2.806519   2.425189   3.891346   4.571688   5.295012
                   16         17         18         19         20
    16  H    0.000000
    17  C    2.168518   0.000000
    18  H    3.051438   1.111260   0.000000
    19  H    2.382715   1.109593   1.785913   0.000000
    20  H    4.474384   4.094352   4.725098   4.782432   0.000000
    21  H    5.115585   4.765448   4.999189   5.780328   2.482757
                   21
    21  H    0.000000
 Symmetry turned off by external request.
 Stoichiometry    C4H10O6Si(2-)
 Framework group  C1[X(C4H10O6Si)]
 Deg. of freedom    57
 Full point group                 C1      NOp   1
 Rotational constants (GHZ):           1.6402736           0.8326380           0.7694727
 Standard basis: def2TZVPP (5D, 7F)
   492 basis functions,   749 primitive gaussians,   558 cartesian basis functions
    49 alpha electrons       49 beta electrons
       nuclear repulsion energy       870.2141614689 Hartrees.
 NAtoms=   21 NActive=   21 NUniq=   21 SFac= 1.00D+00 NAtFMM=   60 NAOKFM=F Big=F
 Integral buffers will be    131072 words long.
 Raffenetti 2 integral format.
 Two-electron integral symmetry is turned off.
 Nuclear repulsion after empirical dispersion term =      870.2020445594 Hartrees.
 One-electron integrals computed using PRISM.
   1 Symmetry operations used in ECPInt.
 ECPInt:  NShTT=   17020 NPrTT=   47563 LenC2=   16198 LenP2D=   35015.
 LDataN:  DoStor=T MaxTD1= 6 Len=  172
 NBasis=   492 RedAO= T EigKep=  2.59D-04  NBF=   492
 NBsUse=   492 1.00D-06 EigRej= -1.00D+00 NBFU=   492
 Initial guess from the checkpoint file:  "PbiLmL_to_HbiL2_IRCForward.chk"
 B after Tr=    -0.000006   -0.000271   -0.000333
         Rot=    1.000000    0.000005    0.000005   -0.000027 Ang=   0.00 deg.
 ExpMin= 7.01D-02 ExpMax= 4.48D+04 ExpMxC= 1.53D+03 IAcc=3 IRadAn=         5 AccDes= 0.00D+00
 Harris functional with IExCor= 4639 and IRadAn=       5 diagonalized for initial guess.
 HarFok:  IExCor= 4639 AccDes= 0.00D+00 IRadAn=         5 IDoV= 1 UseB2=F ITyADJ=14
 ICtDFT=  3500011 ScaDFX=  1.000000  1.000000  1.000000  1.000000
 FoFCou: FMM=F IPFlag=           0 FMFlag=      100000 FMFlg1=           0
         NFxFlg=           0 DoJE=T BraDBF=F KetDBF=T FulRan=T
         wScrn=  0.000000 ICntrl=       500 IOpCl=  0 I1Cent=   200000004 NGrid=           0
         NMat0=    1 NMatS0=      1 NMatT0=    0 NMatD0=    1 NMtDS0=    0 NMtDT0=    0
 Symmetry not used in FoFCou.
 Requested convergence on RMS density matrix=1.00D-08 within 128 cycles.
 Requested convergence on MAX density matrix=1.00D-06.
 Requested convergence on             energy=1.00D-06.
 No special actions if energy rises.
 Integral accuracy reduced to 1.0D-05 until final iterations.
 Initial convergence to 1.0D-05 achieved.  Increase integral accuracy.
 SCF Done:  E(RwB97XD) =  -899.450348574     A.U. after   12 cycles
            NFock= 12  Conv=0.54D-08     -V/T= 2.0035
 DoSCS=F DFT=T ScalE2(SS,OS)=  1.000000  1.000000
 Range of M.O.s used for correlation:     1   492
 NBasis=   492 NAE=    49 NBE=    49 NFC=     0 NFV=     0
 NROrb=    492 NOA=    49 NOB=    49 NVA=   443 NVB=   443

 **** Warning!!: The largest alpha MO coefficient is  0.10171265D+02

 Symmetrizing basis deriv contribution to polar:
 IMax=3 JMax=2 DiffMx= 0.00D+00
   1 Symmetry operations used in ECPInt.
 ECPInt:  NShTT=   17020 NPrTT=   47563 LenC2=   16198 LenP2D=   35015.
 LDataN:  DoStor=T MaxTD1= 7 Len=  274
 Calling FoFJK, ICntrl=      2127 FMM=F ISym2X=0 I1Cent= 0 IOpClX= 0 NMat=1 NMatS=1 NMatT=0.
 -------------------------------------------------------------------
 Center     Atomic                   Forces (Hartrees/Bohr)
 Number     Number              X              Y              Z
 -------------------------------------------------------------------
      1       14           0.001247887   -0.000088926   -0.000316481
      2        8           0.000148382   -0.000085014    0.000095012
      3        8           0.000645058    0.000057867   -0.000157013
      4        8           0.000385155    0.000021273   -0.000175780
      5        8          -0.000067132    0.000198137    0.000663064
      6        8          -0.002120799    0.000390006    0.000060286
      7        8          -0.000968063   -0.000691426    0.000344656
      8        6          -0.000448367    0.000153973    0.000009274
      9        1           0.000097721   -0.000045877    0.000007534
     10        1          -0.000017714    0.000063670   -0.000009026
     11        6          -0.000017639    0.000178966    0.000177381
     12        1           0.000017150    0.000006042    0.000016130
     13        1           0.000003580    0.000018281    0.000016117
     14        6           0.000302605   -0.000059355   -0.000212237
     15        1           0.000015778    0.000000158   -0.000023476
     16        1           0.000027496   -0.000006070   -0.000021437
     17        6           0.000346110   -0.000043976   -0.000172074
     18        1           0.000018782    0.000000437   -0.000011836
     19        1           0.000033422   -0.000009616   -0.000025417
     20        1           0.000289218   -0.000013509   -0.000232632
     21        1           0.000061372   -0.000045042   -0.000032044
 -------------------------------------------------------------------
 Cartesian Forces:  Max     0.002120799 RMS     0.000393296
 IRC-IRC-IRC-IRC-IRC-IRC-IRC-IRC-IRC-IRC-IRC-IRC-IRC-IRC-IRC-IRC-IRC-IRC
 Pt  2 Step number   1 out of a maximum of 100
 Modified Bulirsch-Stoer Extrapolation Cycles:
    EPS =    0.000010000000000
      PEZero:  N= 2 I= 1 D=  1.53D-03 Err=  3.40D-02
      PEZero:  N= 3 I= 2 D=  1.53D-03 Err=  6.32D-02
      PEZero:  N= 3 I= 1 D=  3.06D-03 Err=  6.09D-02
      PEZero:  N= 4 I= 3 D=  7.64D-04 Err=  1.21D-01
      PEZero:  N= 4 I= 2 D=  2.29D-03 Err=  9.84D-02
      PEZero:  N= 4 I= 1 D=  3.82D-03 Err=  8.15D-02
      PEZero:  N= 5 I= 4 D=  7.64D-04 Err=  9.60D-02
      PEZero:  N= 5 I= 3 D=  1.53D-03 Err=  2.28D-02
      PEZero:  N= 5 I= 2 D=  3.06D-03 Err=  2.64D-02
      PEZero:  N= 6 I= 5 D=  3.82D-04 Err=  8.55D-03
      PEZero:  N= 6 I= 4 D=  1.15D-03 Err=  8.46D-02
      PEZero:  N= 7 I= 6 D=  3.82D-04 Err=  7.51D-06
      PEZero:  N= 7 I= 5 D=  7.64D-04 Err=  8.55D-03
 Maximum DWI energy   std dev =  0.000001484 at pt   123
 Maximum DWI gradient std dev =  0.229467822 at pt   145
 CORRECTOR INTEGRATION CONVERGENCE:
   Recorrection delta-x convergence threshold:    0.010000
   Delta-x Convergence Met
 Point Number:   2          Path Number:   1
   CHANGE IN THE REACTION COORDINATE =    0.29325
   NET REACTION COORDINATE UP TO THIS POINT =    0.58662
  # OF POINTS ALONG THE PATH =   2
  # OF STEPS =   1

 Calculating another point on the path.
 IRC-IRC-IRC-IRC-IRC-IRC-IRC-IRC-IRC-IRC-IRC-IRC-IRC-IRC-IRC-IRC-IRC-IRC
                          Input orientation:                          
 ---------------------------------------------------------------------
 Center     Atomic      Atomic             Coordinates (Angstroms)
 Number     Number       Type             X           Y           Z
 ---------------------------------------------------------------------
      1         14           0        0.178728    0.416395   -0.077373
      2          8           0       -0.607074    1.361201   -1.316446
      3          8           0        1.040284   -0.625707    1.186196
      4          8           0        1.685990    0.473917   -0.933144
      5          8           0       -0.535422   -1.085493   -0.634883
      6          8           0       -2.164273    0.473981    0.854331
      7          8           0        0.166355    1.684378    1.083955
      8          6           0       -2.625178   -0.731706    0.474151
      9          1           0       -3.731335   -0.758028    0.245259
     10          1           0       -2.474533   -1.531643    1.247625
     11          6           0       -1.897417   -1.204435   -0.797955
     12          1           0       -2.255949   -0.595328   -1.650216
     13          1           0       -2.152326   -2.261205   -1.012937
     14          6           0        2.709076   -0.273013   -0.382223
     15          1           0        3.293753   -0.780983   -1.172151
     16          1           0        3.411301    0.375494    0.178629
     17          6           0        2.075282   -1.282288    0.588966
     18          1           0        1.743907   -2.175128    0.016248
     19          1           0        2.828231   -1.629655    1.326183
     20          1           0       -0.718364    1.592705    1.451434
     21          1           0       -1.450695    1.553398   -0.900032
 ---------------------------------------------------------------------
                    Distance matrix (angstroms):
                    1          2          3          4          5
     1  Si   0.000000
     2  O    1.745121   0.000000
     3  O    1.850638   3.595109   0.000000
     4  O    1.734212   2.488441   2.473400   0.000000
     5  O    1.753993   2.540861   2.451649   2.730456   0.000000
     6  O    2.522111   2.815014   3.404208   4.244949   2.702383
     7  O    1.719482   2.542550   2.471982   2.800570   3.334528
     8  C    3.079643   3.414563   3.735486   4.692566   2.392112
     9  H    4.095357   4.085469   4.865307   5.679236   3.331027
    10  H    3.548276   4.293065   3.630211   5.107639   2.739167
    11  C    2.730696   2.918270   3.591917   3.959286   1.376869
    12  H    3.070028   2.580348   4.348714   4.146850   2.057031
    13  H    3.671326   3.949905   4.207589   4.713802   2.034602
    14  C    2.640242   3.813172   2.317153   1.381348   3.354210
    15  H    3.512212   4.452665   3.265584   2.053485   3.878656
    16  H    3.242952   4.399342   2.763932   2.054854   4.286363
    17  C    2.631815   4.220624   1.363453   2.356400   2.890037
    18  H    3.028950   4.450708   2.065083   2.814629   2.608949
    19  H    3.629898   5.265932   2.055302   3.291548   3.931419
    20  H    2.127377   2.779774   2.843333   3.566345   3.399842
    21  H    2.150479   0.960227   3.912265   3.317404   2.805668
                    6          7          8          9         10
     6  O    0.000000
     7  O    2.636213   0.000000
     8  C    1.345604   3.741922   0.000000
     9  H    2.084345   4.675547   1.129897   0.000000
    10  H    2.067237   4.164598   1.122879   1.784032   0.000000
    11  C    2.370304   4.018206   1.539924   2.156578   2.150472
    12  H    2.724809   4.305846   2.160525   2.407501   3.053187
    13  H    3.311808   5.033971   2.185038   2.517114   2.397127
    14  C    5.082971   3.527958   5.421996   6.489057   5.577666
    15  H    5.955806   4.576968   6.143817   7.166689   6.300154
    16  H    5.617233   3.614203   6.144290   7.232327   6.278771
    17  C    4.596600   3.562320   4.733989   5.840358   4.604001
    18  H    4.795209   4.304004   4.624072   5.660290   4.441350
    19  H    5.438109   4.257591   5.592132   6.704926   5.304251
    20  H    1.923208   0.962379   3.161314   4.007342   3.589877
    21  H    2.179937   2.562852   2.913673   3.443210   3.895915
                   11         12         13         14         15
    11  C    0.000000
    12  H    1.107206   0.000000
    13  H    1.108133   1.786619   0.000000
    14  C    4.718066   5.134507   5.289985   0.000000
    15  H    5.221837   5.573348   5.645900   1.106286   0.000000
    16  H    5.624267   6.033647   6.271042   1.108259   1.782096
    17  C    4.208556   4.923963   4.625694   1.537381   2.199435
    18  H    3.855439   4.612127   4.030789   2.169878   2.399574
    19  H    5.198512   5.981444   5.538618   2.184795   2.679297
    20  H    3.778082   4.095350   4.793954   4.311676   5.349269
    21  H    2.795643   2.414173   3.880236   4.572482   5.294636
                   16         17         18         19         20
    16  H    0.000000
    17  C    2.168309   0.000000
    18  H    3.051597   1.111296   0.000000
    19  H    2.382746   1.109543   1.785841   0.000000
    20  H    4.489518   4.100475   4.724309   4.793499   0.000000
    21  H    5.117614   4.763480   4.994692   5.779020   2.463178
                   21
    21  H    0.000000
 Symmetry turned off by external request.
 Stoichiometry    C4H10O6Si(2-)
 Framework group  C1[X(C4H10O6Si)]
 Deg. of freedom    57
 Full point group                 C1      NOp   1
 Rotational constants (GHZ):           1.6452624           0.8276813           0.7657207
 Standard basis: def2TZVPP (5D, 7F)
   492 basis functions,   749 primitive gaussians,   558 cartesian basis functions
    49 alpha electrons       49 beta electrons
       nuclear repulsion energy       869.5062146575 Hartrees.
 NAtoms=   21 NActive=   21 NUniq=   21 SFac= 1.00D+00 NAtFMM=   60 NAOKFM=F Big=F
 Integral buffers will be    131072 words long.
 Raffenetti 2 integral format.
 Two-electron integral symmetry is turned off.
 Nuclear repulsion after empirical dispersion term =      869.4940926765 Hartrees.
 One-electron integrals computed using PRISM.
   1 Symmetry operations used in ECPInt.
 ECPInt:  NShTT=   17020 NPrTT=   47563 LenC2=   16188 LenP2D=   34996.
 LDataN:  DoStor=T MaxTD1= 6 Len=  172
 NBasis=   492 RedAO= T EigKep=  2.59D-04  NBF=   492
 NBsUse=   492 1.00D-06 EigRej= -1.00D+00 NBFU=   492
 Initial guess from the checkpoint file:  "PbiLmL_to_HbiL2_IRCForward.chk"
 B after Tr=     0.000024   -0.000293   -0.000290
         Rot=    1.000000   -0.000007   -0.000003   -0.000040 Ang=  -0.00 deg.
 ExpMin= 7.01D-02 ExpMax= 4.48D+04 ExpMxC= 1.53D+03 IAcc=3 IRadAn=         5 AccDes= 0.00D+00
 Harris functional with IExCor= 4639 and IRadAn=       5 diagonalized for initial guess.
 HarFok:  IExCor= 4639 AccDes= 0.00D+00 IRadAn=         5 IDoV= 1 UseB2=F ITyADJ=14
 ICtDFT=  3500011 ScaDFX=  1.000000  1.000000  1.000000  1.000000
 FoFCou: FMM=F IPFlag=           0 FMFlag=      100000 FMFlg1=           0
         NFxFlg=           0 DoJE=T BraDBF=F KetDBF=T FulRan=T
         wScrn=  0.000000 ICntrl=       500 IOpCl=  0 I1Cent=   200000004 NGrid=           0
         NMat0=    1 NMatS0=      1 NMatT0=    0 NMatD0=    1 NMtDS0=    0 NMtDT0=    0
 Symmetry not used in FoFCou.
 Requested convergence on RMS density matrix=1.00D-08 within 128 cycles.
 Requested convergence on MAX density matrix=1.00D-06.
 Requested convergence on             energy=1.00D-06.
 No special actions if energy rises.
 Integral accuracy reduced to 1.0D-05 until final iterations.
 Initial convergence to 1.0D-05 achieved.  Increase integral accuracy.
 SCF Done:  E(RwB97XD) =  -899.450617478     A.U. after   12 cycles
            NFock= 12  Conv=0.57D-08     -V/T= 2.0035
 DoSCS=F DFT=T ScalE2(SS,OS)=  1.000000  1.000000
 Range of M.O.s used for correlation:     1   492
 NBasis=   492 NAE=    49 NBE=    49 NFC=     0 NFV=     0
 NROrb=    492 NOA=    49 NOB=    49 NVA=   443 NVB=   443

 **** Warning!!: The largest alpha MO coefficient is  0.10308524D+02

 Symmetrizing basis deriv contribution to polar:
 IMax=3 JMax=2 DiffMx= 0.00D+00
   1 Symmetry operations used in ECPInt.
 ECPInt:  NShTT=   17020 NPrTT=   47563 LenC2=   16188 LenP2D=   34996.
 LDataN:  DoStor=T MaxTD1= 7 Len=  274
 Calling FoFJK, ICntrl=      2127 FMM=F ISym2X=0 I1Cent= 0 IOpClX= 0 NMat=1 NMatS=1 NMatT=0.
 -------------------------------------------------------------------
 Center     Atomic                   Forces (Hartrees/Bohr)
 Number     Number              X              Y              Z
 -------------------------------------------------------------------
      1       14           0.001496405   -0.000141092   -0.000427928
      2        8           0.000330038   -0.000161345    0.000105830
      3        8           0.001019255    0.000103283   -0.000259057
      4        8           0.000669904    0.000026666   -0.000303100
      5        8          -0.000055922    0.000326207    0.001021674
      6        8          -0.003058509    0.000650959    0.000032632
      7        8          -0.001125181   -0.001017399    0.000387390
      8        6          -0.000727106    0.000161768    0.000035218
      9        1           0.000108037   -0.000079512    0.000005405
     10        1          -0.000014850    0.000079790   -0.000005876
     11        6          -0.000017645    0.000309552    0.000295873
     12        1           0.000021295    0.000019685    0.000018802
     13        1           0.000004714    0.000029023    0.000020183
     14        6           0.000516598   -0.000107672   -0.000322726
     15        1           0.000029210   -0.000004262   -0.000033507
     16        1           0.000043531   -0.000010514   -0.000028649
     17        6           0.000560008   -0.000081796   -0.000275403
     18        1           0.000028481   -0.000002000   -0.000017808
     19        1           0.000048549   -0.000014382   -0.000033061
     20        1           0.000082051   -0.000040423   -0.000198896
     21        1           0.000041137   -0.000046534   -0.000016997
 -------------------------------------------------------------------
 Cartesian Forces:  Max     0.003058509 RMS     0.000552593
 IRC-IRC-IRC-IRC-IRC-IRC-IRC-IRC-IRC-IRC-IRC-IRC-IRC-IRC-IRC-IRC-IRC-IRC
 Pt  3 Step number   1 out of a maximum of 100
 Modified Bulirsch-Stoer Extrapolation Cycles:
    EPS =    0.000010000000000
      PEZero:  N= 2 I= 1 D=  1.53D-03 Err=  9.40D-02
      PEZero:  N= 3 I= 2 D=  1.53D-03 Err=  9.79D-02
      PEZero:  N= 3 I= 1 D=  3.06D-03 Err=  5.29D-02
      PEZero:  N= 4 I= 3 D=  7.64D-04 Err=  7.14D-06
      PEZero:  N= 4 I= 2 D=  2.29D-03 Err=  9.79D-02
 Maximum DWI energy   std dev =  0.000001384 at pt    29
 Maximum DWI gradient std dev =  0.088301598 at pt    74
 CORRECTOR INTEGRATION CONVERGENCE:
   Recorrection delta-x convergence threshold:    0.010000
   Delta-x Convergence Met
 Point Number:   3          Path Number:   1
   CHANGE IN THE REACTION COORDINATE =    0.29331
   NET REACTION COORDINATE UP TO THIS POINT =    0.87993
  # OF POINTS ALONG THE PATH =   3
  # OF STEPS =   1

 Calculating another point on the path.
 IRC-IRC-IRC-IRC-IRC-IRC-IRC-IRC-IRC-IRC-IRC-IRC-IRC-IRC-IRC-IRC-IRC-IRC
                          Input orientation:                          
 ---------------------------------------------------------------------
 Center     Atomic      Atomic             Coordinates (Angstroms)
 Number     Number       Type             X           Y           Z
 ---------------------------------------------------------------------
      1         14           0        0.186771    0.415628   -0.079808
      2          8           0       -0.603701    1.359677   -1.315723
      3          8           0        1.049421   -0.624790    1.184029
      4          8           0        1.691569    0.474128   -0.935641
      5          8           0       -0.535878   -1.082708   -0.625669
      6          8           0       -2.190862    0.481243    0.854853
      7          8           0        0.157806    1.675566    1.086882
      8          6           0       -2.633245   -0.730418    0.474378
      9          1           0       -3.738724   -0.772541    0.240577
     10          1           0       -2.476096   -1.527900    1.249543
     11          6           0       -1.897957   -1.200945   -0.794312
     12          1           0       -2.252526   -0.591871   -1.647941
     13          1           0       -2.150958   -2.257836   -1.010740
     14          6           0        2.715156   -0.274180   -0.386152
     15          1           0        3.298161   -0.781501   -1.177452
     16          1           0        3.417980    0.373924    0.174024
     17          6           0        2.082033   -1.283262    0.585560
     18          1           0        1.748499   -2.175629    0.013266
     19          1           0        2.835885   -1.631754    1.321251
     20          1           0       -0.735200    1.584148    1.436567
     21          1           0       -1.448940    1.546474   -0.899412
 ---------------------------------------------------------------------
                    Distance matrix (angstroms):
                    1          2          3          4          5
     1  Si   0.000000
     2  O    1.744581   0.000000
     3  O    1.850383   3.594396   0.000000
     4  O    1.732135   2.489362   2.472443   0.000000
     5  O    1.750770   2.538901   2.449055   2.735205   0.000000
     6  O    2.555589   2.828803   3.439637   4.275417   2.716037
     7  O    1.717396   2.540117   2.469019   2.808289   3.319956
     8  C    3.094032   3.419358   3.751905   4.705646   2.394402
     9  H    4.113867   4.098389   4.882445   5.694362   3.332387
    10  H    3.554622   4.292384   3.639941   5.113960   2.734787
    11  C    2.733114   2.916120   3.596224   3.963653   1.377563
    12  H    3.069897   2.576342   4.350172   4.147242   2.057387
    13  H    3.671378   3.946317   4.210258   4.715324   2.034130
    14  C    2.638639   3.814237   2.315830   1.381895   3.358618
    15  H    3.509799   4.452897   3.264656   2.053342   3.885235
    16  H    3.241433   4.400565   2.761813   2.054724   4.288856
    17  C    2.630772   4.220565   1.363099   2.356891   2.891498
    18  H    3.026924   4.449432   2.065066   2.815116   2.611722
    19  H    3.629399   5.266217   2.055300   3.292075   3.932014
    20  H    2.124820   2.764558   2.850974   3.570535   3.377080
    21  H    2.150840   0.960540   3.911128   3.318740   2.796644
                    6          7          8          9         10
     6  O    0.000000
     7  O    2.645087   0.000000
     8  C    1.344837   3.735490   0.000000
     9  H    2.084511   4.678932   1.130717   0.000000
    10  H    2.067316   4.150433   1.123189   1.784043   0.000000
    11  C    2.373877   4.004918   1.540006   2.154749   2.149066
    12  H    2.723849   4.293045   2.160644   2.409963   3.053121
    13  H    3.314299   5.020165   2.184303   2.508564   2.397373
    14  C    5.116617   3.537143   5.436365   6.503362   5.585375
    15  H    5.987834   4.585436   6.157331   7.178345   6.307889
    16  H    5.651032   3.627165   6.158499   7.248257   6.286001
    17  C    4.630727   3.564918   4.748879   5.853295   4.612729
    18  H    4.825536   4.302867   4.636911   5.668328   4.449173
    19  H    5.472702   4.262089   5.607226   6.718004   5.313480
    20  H    1.916701   0.963377   3.144137   4.000692   3.570790
    21  H    2.182340   2.558058   2.911033   3.452610   3.889066
                   11         12         13         14         15
    11  C    0.000000
    12  H    1.106966   0.000000
    13  H    1.108092   1.786555   0.000000
    14  C    4.722955   5.135262   5.291887   0.000000
    15  H    5.227081   5.573818   5.648031   1.106085   0.000000
    16  H    5.628239   6.033818   6.272391   1.108060   1.782091
    17  C    4.213211   4.924932   4.627762   1.537307   2.199759
    18  H    3.859901   4.612602   4.032506   2.170131   2.400594
    19  H    5.202928   5.982423   5.540646   2.184675   2.679579
    20  H    3.753074   4.068357   4.770170   4.322111   5.356994
    21  H    2.785852   2.403866   3.870142   4.573611   5.294501
                   16         17         18         19         20
    16  H    0.000000
    17  C    2.168036   0.000000
    18  H    3.051758   1.111343   0.000000
    19  H    2.382794   1.109495   1.785786   0.000000
    20  H    4.506391   4.108899   4.725512   4.807074   0.000000
    21  H    5.119966   4.762386   4.991056   5.778598   2.442875
                   21
    21  H    0.000000
 Symmetry turned off by external request.
 Stoichiometry    C4H10O6Si(2-)
 Framework group  C1[X(C4H10O6Si)]
 Deg. of freedom    57
 Full point group                 C1      NOp   1
 Rotational constants (GHZ):           1.6505166           0.8227355           0.7619557
 Standard basis: def2TZVPP (5D, 7F)
   492 basis functions,   749 primitive gaussians,   558 cartesian basis functions
    49 alpha electrons       49 beta electrons
       nuclear repulsion energy       868.8059262373 Hartrees.
 NAtoms=   21 NActive=   21 NUniq=   21 SFac= 1.00D+00 NAtFMM=   60 NAOKFM=F Big=F
 Integral buffers will be    131072 words long.
 Raffenetti 2 integral format.
 Two-electron integral symmetry is turned off.
 Nuclear repulsion after empirical dispersion term =      868.7938004650 Hartrees.
 One-electron integrals computed using PRISM.
   1 Symmetry operations used in ECPInt.
 ECPInt:  NShTT=   17020 NPrTT=   47563 LenC2=   16178 LenP2D=   34969.
 LDataN:  DoStor=T MaxTD1= 6 Len=  172
 NBasis=   492 RedAO= T EigKep=  2.59D-04  NBF=   492
 NBsUse=   492 1.00D-06 EigRej= -1.00D+00 NBFU=   492
[...]
    12  H    2.697123   3.875455   2.159067   2.476528   3.047477
    13  H    3.351075   4.474289   2.159005   2.311400   2.436101
    14  C    5.920873   3.899054   5.878210   6.866264   5.999122
    15  H    6.705509   4.910592   6.547445   7.450227   6.716115
    16  H    6.503983   4.165772   6.626785   7.669692   6.714380
    17  C    5.613454   3.690984   5.355831   6.354841   5.206348
    18  H    5.752528   4.298418   5.247921   6.127037   5.087958
    19  H    6.509584   4.417330   6.260142   7.271613   5.976151
    20  H    1.786028   0.983397   2.582920   3.637370   2.839246
    21  H    2.211765   2.458798   2.839356   3.597453   3.690159
                   11         12         13         14         15
    11  C    0.000000
    12  H    1.101822   0.000000
    13  H    1.107178   1.783212   0.000000
    14  C    4.898475   5.083030   5.464303   0.000000
    15  H    5.382726   5.467144   5.811826   1.104716   0.000000
    16  H    5.802457   5.988126   6.446087   1.107904   1.780212
    17  C    4.481692   4.986682   4.889429   1.532768   2.199511
    18  H    4.176785   4.708279   4.352059   2.169804   2.396220
    19  H    5.483672   6.057946   5.829528   2.188130   2.707494
    20  H    3.076447   3.436466   4.088488   4.680471   5.624124
    21  H    2.647842   2.267673   3.730494   4.557723   5.224480
                   16         17         18         19         20
    16  H    0.000000
    17  C    2.169367   0.000000
    18  H    3.049822   1.111291   0.000000
    19  H    2.385238   1.107070   1.783089   0.000000
    20  H    5.058902   4.427139   4.868406   5.219049   0.000000
    21  H    5.126943   4.809140   5.040037   5.826709   2.097361
                   21
    21  H    0.000000
 Symmetry turned off by external request.
 Stoichiometry    C4H10O6Si(2-)
 Framework group  C1[X(C4H10O6Si)]
 Deg. of freedom    57
 Full point group                 C1      NOp   1
 Rotational constants (GHZ):           1.9258450           0.6909284           0.6619537
 Standard basis: def2TZVPP (5D, 7F)
   492 basis functions,   749 primitive gaussians,   558 cartesian basis functions
    49 alpha electrons       49 beta electrons
       nuclear repulsion energy       852.8649991769 Hartrees.
 NAtoms=   21 NActive=   21 NUniq=   21 SFac= 1.00D+00 NAtFMM=   60 NAOKFM=F Big=F
 Integral buffers will be    131072 words long.
 Raffenetti 2 integral format.
 Two-electron integral symmetry is turned off.
 Nuclear repulsion after empirical dispersion term =      852.8528874470 Hartrees.
 One-electron integrals computed using PRISM.
   1 Symmetry operations used in ECPInt.
 ECPInt:  NShTT=   17020 NPrTT=   47563 LenC2=   16004 LenP2D=   34477.
 LDataN:  DoStor=T MaxTD1= 6 Len=  172
 NBasis=   492 RedAO= T EigKep=  2.91D-04  NBF=   492
 NBsUse=   492 1.00D-06 EigRej= -1.00D+00 NBFU=   492
 Initial guess from the checkpoint file:  "PbiLmL_to_HbiL2_IRCForward.chk"
 B after Tr=    -0.000142    0.000153   -0.000300
         Rot=    1.000000    0.000124   -0.000024   -0.000060 Ang=   0.02 deg.
 ExpMin= 7.01D-02 ExpMax= 4.48D+04 ExpMxC= 1.53D+03 IAcc=3 IRadAn=         5 AccDes= 0.00D+00
 Harris functional with IExCor= 4639 and IRadAn=       5 diagonalized for initial guess.
 HarFok:  IExCor= 4639 AccDes= 0.00D+00 IRadAn=         5 IDoV= 1 UseB2=F ITyADJ=14
 ICtDFT=  3500011 ScaDFX=  1.000000  1.000000  1.000000  1.000000
 FoFCou: FMM=F IPFlag=           0 FMFlag=      100000 FMFlg1=           0
         NFxFlg=           0 DoJE=T BraDBF=F KetDBF=T FulRan=T
         wScrn=  0.000000 ICntrl=       500 IOpCl=  0 I1Cent=   200000004 NGrid=           0
         NMat0=    1 NMatS0=      1 NMatT0=    0 NMatD0=    1 NMtDS0=    0 NMtDT0=    0
 Symmetry not used in FoFCou.
 Requested convergence on RMS density matrix=1.00D-08 within 128 cycles.
 Requested convergence on MAX density matrix=1.00D-06.
 Requested convergence on             energy=1.00D-06.
 No special actions if energy rises.
 Integral accuracy reduced to 1.0D-05 until final iterations.
 Initial convergence to 1.0D-05 achieved.  Increase integral accuracy.
 SCF Done:  E(RwB97XD) =  -899.475262929     A.U. after   11 cycles
            NFock= 11  Conv=0.36D-08     -V/T= 2.0035
 DoSCS=F DFT=T ScalE2(SS,OS)=  1.000000  1.000000
 Range of M.O.s used for correlation:     1   492
 NBasis=   492 NAE=    49 NBE=    49 NFC=     0 NFV=     0
 NROrb=    492 NOA=    49 NOB=    49 NVA=   443 NVB=   443

 **** Warning!!: The largest alpha MO coefficient is  0.12317549D+02

 Symmetrizing basis deriv contribution to polar:
 IMax=3 JMax=2 DiffMx= 0.00D+00
   1 Symmetry operations used in ECPInt.
 ECPInt:  NShTT=   17020 NPrTT=   47563 LenC2=   16004 LenP2D=   34477.
 LDataN:  DoStor=T MaxTD1= 7 Len=  274
 Calling FoFJK, ICntrl=      2127 FMM=F ISym2X=0 I1Cent= 0 IOpClX= 0 NMat=1 NMatS=1 NMatT=0.
 -------------------------------------------------------------------
 Center     Atomic                   Forces (Hartrees/Bohr)
 Number     Number              X              Y              Z
 -------------------------------------------------------------------
      1       14          -0.000116793   -0.000949203    0.000599674
      2        8          -0.000794440   -0.000415020    0.001166075
      3        8           0.000868621   -0.000044623   -0.000241992
      4        8          -0.000571120   -0.000043178   -0.000372282
      5        8           0.000003699   -0.000503913    0.001056152
      6        8          -0.000336652    0.000917290   -0.002259258
      7        8           0.003590975   -0.001389964    0.001845047
      8        6          -0.000552571    0.001162507   -0.000646045
      9        1           0.000080907    0.000066735    0.000026682
     10        1          -0.000073634    0.000039681   -0.000027823
     11        6          -0.000053582   -0.000349316    0.000335697
     12        1           0.000010389   -0.000046535   -0.000032219
     13        1           0.000003761   -0.000006358    0.000043967
     14        6           0.000071946    0.000581544   -0.000623948
     15        1          -0.000015744    0.000021274   -0.000003824
     16        1          -0.000022501    0.000005088   -0.000028498
     17        6           0.000970554    0.000487232   -0.000300718
     18        1           0.000048053    0.000012003    0.000007197
     19        1           0.000004718    0.000040616   -0.000025262
     20        1          -0.003201704    0.000429209   -0.000569404
     21        1           0.000085117   -0.000015068    0.000050784
 -------------------------------------------------------------------
 Cartesian Forces:  Max     0.003590975 RMS     0.000849780
 IRC-IRC-IRC-IRC-IRC-IRC-IRC-IRC-IRC-IRC-IRC-IRC-IRC-IRC-IRC-IRC-IRC-IRC
 Error in corrector energy =          -0.0000367648
 Magnitude of corrector gradient =     0.0045024838
 Magnitude of analytic gradient =      0.0067449230
 Magnitude of difference =             0.0051452068
 Angle between gradients (degrees)=   49.6894
 Pt 39 Step number  99 out of a maximum of 100
 Modified Bulirsch-Stoer Extrapolation Cycles:
    EPS =    0.000010000000000
      PEZero:  N= 2 I= 1 D=  1.53D-03 Err=  8.22D-02
      PEZero:  N= 3 I= 2 D=  1.53D-03 Err=  4.06D-02
      PEZero:  N= 3 I= 1 D=  3.06D-03 Err=  2.13D-02
      PEZero:  N= 4 I= 3 D=  7.64D-04 Err=  7.55D-05
      PEZero:  N= 4 I= 2 D=  2.29D-03 Err=  4.07D-02
      PEZero:  N= 5 I= 4 D=  7.64D-04 Err=  5.03D-05
      PEZero:  N= 5 I= 3 D=  1.53D-03 Err=  1.21D-07
      PEZero:  N= 5 I= 2 D=  3.06D-03 Err=  1.06D-02
 Maximum DWI energy   std dev =  0.000003072 at pt    62
 Maximum DWI gradient std dev =  0.349296092 at pt   114
 CORRECTOR INTEGRATION CONVERGENCE:
   Recorrection delta-x convergence threshold:    0.010000
   Delta-x Convergence NOT Met
 IRC-IRC-IRC-IRC-IRC-IRC-IRC-IRC-IRC-IRC-IRC-IRC-IRC-IRC-IRC-IRC-IRC-IRC
                          Input orientation:                          
 ---------------------------------------------------------------------
 Center     Atomic      Atomic             Coordinates (Angstroms)
 Number     Number       Type             X           Y           Z
 ---------------------------------------------------------------------
      1         14           0        0.328317    0.325543   -0.034040
      2          8           0       -0.460031    1.287632   -1.251587
      3          8           0        1.413945   -0.591906    1.109908
      4          8           0        1.766513    0.477971   -1.025304
      5          8           0       -0.581495   -1.094552   -0.275398
      6          8           0       -2.812838    0.799798    0.617539
      7          8           0       -0.196527    1.242508    1.267051
      8          6           0       -2.890448   -0.529095    0.416352
      9          1           0       -3.913484   -0.871488    0.060585
     10          1           0       -2.706557   -1.140255    1.341696
     11          6           0       -1.927794   -1.115002   -0.642387
     12          1           0       -2.089336   -0.573128   -1.588127
     13          1           0       -2.211014   -2.172304   -0.808678
     14          6           0        2.887577   -0.217205   -0.617622
     15          1           0        3.375028   -0.714798   -1.474993
     16          1           0        3.634533    0.467076   -0.169216
     17          6           0        2.419693   -1.223532    0.439547
     18          1           0        2.075934   -2.152072   -0.065068
     19          1           0        3.252627   -1.509487    1.110244
     20          1           0       -1.183778    1.255942    1.170538
     21          1           0       -1.342382    1.456405   -0.900223
 ---------------------------------------------------------------------
                    Distance matrix (angstroms):
                    1          2          3          4          5
     1  Si   0.000000
     2  O    1.740554   0.000000
     3  O    1.824532   3.552620   0.000000
     4  O    1.753353   2.379969   2.414141   0.000000
     5  O    1.703726   2.577304   2.480627   2.923753   0.000000
     6  O    3.242888   3.044227   4.477159   4.875752   3.060194
     7  O    1.676045   2.532787   2.446097   3.113348   2.826518
     8  C    3.360611   3.462578   4.360363   4.977936   2.475787
     9  H    4.408482   4.279011   5.436979   5.938229   3.356306
    10  H    3.640284   4.203169   4.163285   5.313163   2.670762
    11  C    2.745048   2.880642   3.809381   4.041298   1.395571
    12  H    3.011285   2.496061   4.421846   4.035982   2.066088
    13  H    3.645202   3.902981   4.395333   4.784517   2.025158
    14  C    2.680476   3.724637   2.301380   1.380673   3.594623
    15  H    3.527195   4.332125   3.246947   2.052374   4.151785
    16  H    3.312004   4.313965   2.772835   2.054873   4.497205
    17  C    2.645330   4.178359   1.363769   2.338279   3.087865
    18  H    3.032112   4.435145   2.062260   2.816900   2.867842
    19  H    3.637075   5.214015   2.054923   3.274003   4.097886
    20  H    2.145479   2.528142   3.188476   3.759146   2.824588
    21  H    2.195531   0.964617   3.979139   3.261627   2.734362
                    6          7          8          9         10
     6  O    0.000000
     7  O    2.731838   0.000000
     8  C    1.346275   3.334588   0.000000
     9  H    2.077214   4.443007   1.135960   0.000000
    10  H    2.073524   3.461702   1.124097   1.780493   0.000000
    11  C    2.457066   3.493006   1.546260   2.120480   2.131595
    12  H    2.696913   3.877022   2.159086   2.476850   3.047368
    13  H    3.351071   4.475237   2.159274   2.312174   2.436144
    14  C    5.920696   3.898006   5.878090   6.866038   5.998773
    15  H    6.705399   4.909772   6.547355   7.450165   6.715685
    16  H    6.503713   4.164274   6.626509   7.669232   6.713850
    17  C    5.612924   3.689271   5.355406   6.354265   5.205693
    18  H    5.751485   4.296719   5.246978   6.126077   5.086746
    19  H    6.508873   4.415284   6.259396   7.270625   5.975097
    20  H    1.779807   0.992048   2.582223   3.634453   2.844277
    21  H    2.212911   2.460857   2.841142   3.599000   3.691858
                   11         12         13         14         15
    11  C    0.000000
    12  H    1.101883   0.000000
    13  H    1.107138   1.783174   0.000000
    14  C    4.898412   5.083131   5.463931   0.000000
    15  H    5.382686   5.467371   5.811382   1.104669   0.000000
    16  H    5.802270   5.988155   6.445592   1.107813   1.780231
    17  C    4.481406   4.986565   4.888934   1.532715   2.199305
    18  H    4.175961   4.707680   4.351010   2.169744   2.396099
    19  H    5.483074   6.057602   5.828633   2.188327   2.707391
    20  H    3.075976   3.431583   4.089667   4.684400   5.627198
    21  H    2.649777   2.269395   3.732349   4.557783   5.224791
                   16         17         18         19         20
    16  H    0.000000
    17  C    2.169005   0.000000
    18  H    3.049592   1.111302   0.000000
    19  H    2.385303   1.106971   1.782941   0.000000
    20  H    5.062941   4.434765   4.875141   5.228090   0.000000
    21  H    5.126678   4.809392   5.040186   5.826887   2.086478
                   21
    21  H    0.000000
 Symmetry turned off by external request.
 Stoichiometry    C4H10O6Si(2-)
 Framework group  C1[X(C4H10O6Si)]
 Deg. of freedom    57
 Full point group                 C1      NOp   1
 Rotational constants (GHZ):           1.9255452           0.6909276           0.6620211
 Standard basis: def2TZVPP (5D, 7F)
   492 basis functions,   749 primitive gaussians,   558 cartesian basis functions
    49 alpha electrons       49 beta electrons
       nuclear repulsion energy       852.8327612802 Hartrees.
 NAtoms=   21 NActive=   21 NUniq=   21 SFac= 1.00D+00 NAtFMM=   60 NAOKFM=F Big=F
 Integral buffers will be    131072 words long.
 Raffenetti 2 integral format.
 Two-electron integral symmetry is turned off.
 Nuclear repulsion after empirical dispersion term =      852.8206544464 Hartrees.
 One-electron integrals computed using PRISM.
   1 Symmetry operations used in ECPInt.
 ECPInt:  NShTT=   17020 NPrTT=   47563 LenC2=   16004 LenP2D=   34476.
 LDataN:  DoStor=T MaxTD1= 6 Len=  172
 NBasis=   492 RedAO= T EigKep=  2.91D-04  NBF=   492
 NBsUse=   492 1.00D-06 EigRej= -1.00D+00 NBFU=   492
 Initial guess from the checkpoint file:  "PbiLmL_to_HbiL2_IRCForward.chk"
 B after Tr=     0.000142   -0.000153    0.000300
         Rot=    1.000000   -0.000124    0.000024    0.000060 Ang=  -0.02 deg.
 ExpMin= 7.01D-02 ExpMax= 4.48D+04 ExpMxC= 1.53D+03 IAcc=3 IRadAn=         5 AccDes= 0.00D+00
 Harris functional with IExCor= 4639 and IRadAn=       5 diagonalized for initial guess.
 HarFok:  IExCor= 4639 AccDes= 0.00D+00 IRadAn=         5 IDoV= 1 UseB2=F ITyADJ=14
 ICtDFT=  3500011 ScaDFX=  1.000000  1.000000  1.000000  1.000000
 FoFCou: FMM=F IPFlag=           0 FMFlag=      100000 FMFlg1=           0
         NFxFlg=           0 DoJE=T BraDBF=F KetDBF=T FulRan=T
         wScrn=  0.000000 ICntrl=       500 IOpCl=  0 I1Cent=   200000004 NGrid=           0
         NMat0=    1 NMatS0=      1 NMatT0=    0 NMatD0=    1 NMtDS0=    0 NMtDT0=    0
 Symmetry not used in FoFCou.
 Requested convergence on RMS density matrix=1.00D-08 within 128 cycles.
 Requested convergence on MAX density matrix=1.00D-06.
 Requested convergence on             energy=1.00D-06.
 No special actions if energy rises.
 Integral accuracy reduced to 1.0D-05 until final iterations.
 Initial convergence to 1.0D-05 achieved.  Increase integral accuracy.
 SCF Done:  E(RwB97XD) =  -899.475265515     A.U. after   11 cycles
            NFock= 11  Conv=0.45D-08     -V/T= 2.0035
 DoSCS=F DFT=T ScalE2(SS,OS)=  1.000000  1.000000
 Range of M.O.s used for correlation:     1   492
 NBasis=   492 NAE=    49 NBE=    49 NFC=     0 NFV=     0
 NROrb=    492 NOA=    49 NOB=    49 NVA=   443 NVB=   443

 **** Warning!!: The largest alpha MO coefficient is  0.12330108D+02

 Symmetrizing basis deriv contribution to polar:
 IMax=3 JMax=2 DiffMx= 0.00D+00
   1 Symmetry operations used in ECPInt.
 ECPInt:  NShTT=   17020 NPrTT=   47563 LenC2=   16004 LenP2D=   34476.
 LDataN:  DoStor=T MaxTD1= 7 Len=  274
 Calling FoFJK, ICntrl=      2127 FMM=F ISym2X=0 I1Cent= 0 IOpClX= 0 NMat=1 NMatS=1 NMatT=0.
 -------------------------------------------------------------------
 Center     Atomic                   Forces (Hartrees/Bohr)
 Number     Number              X              Y              Z
 -------------------------------------------------------------------
      1       14           0.000069854   -0.000791110    0.000996063
      2        8          -0.000603378   -0.000353971    0.001203899
      3        8           0.000938027   -0.000195366   -0.000203363
      4        8          -0.000558121   -0.000099666   -0.000406995
      5        8          -0.000179619   -0.000611037    0.000941486
      6        8          -0.000188280    0.001562680   -0.002246445
      7        8          -0.003276905   -0.000904659    0.000520772
      8        6          -0.000289816    0.000826356   -0.000587734
      9        1          -0.000043618    0.000058296   -0.000058675
     10        1          -0.000047901    0.000112727   -0.000015792
     11        6           0.000056811   -0.000262431    0.000332132
     12        1           0.000028445   -0.000058501   -0.000006545
     13        1          -0.000022174   -0.000015815    0.000065440
     14        6           0.000027261    0.000542682   -0.000617058
     15        1           0.000011060    0.000027276   -0.000043051
     16        1           0.000008986    0.000062480   -0.000037623
     17        6           0.000885245    0.000464879   -0.000324067
     18        1           0.000054879   -0.000004828   -0.000007144
     19        1           0.000076422    0.000048695   -0.000007618
     20        1           0.003194479   -0.000343421    0.000508983
     21        1          -0.000141659   -0.000065263   -0.000006666
 -------------------------------------------------------------------
 Cartesian Forces:  Max     0.003276905 RMS     0.000790681
 IRC-IRC-IRC-IRC-IRC-IRC-IRC-IRC-IRC-IRC-IRC-IRC-IRC-IRC-IRC-IRC-IRC-IRC
 Error in corrector energy =          -0.0000340377
 Magnitude of corrector gradient =     0.0047222997
 Magnitude of analytic gradient =      0.0062758361
 Magnitude of difference =             0.0050558407
 Angle between gradients (degrees)=   52.4491
 Pt 39 Step number 100 out of a maximum of 100
 Modified Bulirsch-Stoer Extrapolation Cycles:
    EPS =    0.000010000000000
      PEZero:  N= 2 I= 1 D=  1.53D-03 Err=  8.38D-02
      PEZero:  N= 3 I= 2 D=  1.53D-03 Err=  4.13D-02
      PEZero:  N= 3 I= 1 D=  3.06D-03 Err=  2.18D-02
      PEZero:  N= 4 I= 3 D=  7.64D-04 Err=  6.68D-05
      PEZero:  N= 4 I= 2 D=  2.29D-03 Err=  4.13D-02
      PEZero:  N= 5 I= 4 D=  7.64D-04 Err=  4.45D-05
      PEZero:  N= 5 I= 3 D=  1.53D-03 Err=  7.81D-08
      PEZero:  N= 5 I= 2 D=  3.06D-03 Err=  1.09D-02
 Maximum DWI energy   std dev =  0.000004280 at pt    47
 Maximum DWI gradient std dev =  0.559923178 at pt   110
 CORRECTOR INTEGRATION CONVERGENCE:
   Recorrection delta-x convergence threshold:    0.010000
   Delta-x Convergence NOT Met
 Maximum number of corrector steps exceded.
 Error termination via Lnk1e in /opt/software/gaussian/g16.c01/l123.exe at Sat Mar 23 01:47:12 2024.
 Job cpu time:       7 days 12 hours 58 minutes 39.0 seconds.
 Elapsed time:       1 days 22 hours  0 minutes 16.8 seconds.
 File lengths (MBytes):  RWF=    405 Int=      0 D2E=      0 Chk=     20 Scr=      1
