 Entering Gaussian System, Link 0=/opt/software/gaussian/g16.c01/g16
 Initial command:
 /opt/software/gaussian/g16.c01/l1.exe "/scratch/arhender/16037714/Gau-27630.inp" -scrdir="/scratch/arhender/16037714/"
 Entering Link 1 = /opt/software/gaussian/g16.c01/l1.exe PID=     27631.
  
 Copyright (c) 1988-2019, Gaussian, Inc.  All Rights Reserved.
  
 This is part of the Gaussian(R) 16 program.  It is based on
 the Gaussian(R) 09 system (copyright 2009, Gaussian, Inc.),
 the Gaussian(R) 03 system (copyright 2003, Gaussian, Inc.),
 the Gaussian(R) 98 system (copyright 1998, Gaussian, Inc.),
 the Gaussian(R) 94 system (copyright 1995, Gaussian, Inc.),
 the Gaussian 92(TM) system (copyright 1992, Gaussian, Inc.),
 the Gaussian 90(TM) system (copyright 1990, Gaussian, Inc.),
 the Gaussian 88(TM) system (copyright 1988, Gaussian, Inc.),
 the Gaussian 86(TM) system (copyright 1986, Carnegie Mellon
 University), and the Gaussian 82(TM) system (copyright 1983,
 Carnegie Mellon University). Gaussian is a federally registered
 trademark of Gaussian, Inc.
  
 This software contains proprietary and confidential information,
 including trade secrets, belonging to Gaussian, Inc.
  
 This software is provided under written license and may be
 used, copied, transmitted, or stored only in accord with that
 written license.
  
 The following legend is applicable only to US Government
 contracts under FAR:
  
                    RESTRICTED RIGHTS LEGEND
  
 Use, reproduction and disclosure by the US Government is
 subject to restrictions as set forth in subparagraphs (a)
 and (c) of the Commercial Computer Software - Restricted
 Rights clause in FAR 52.227-19.
  
 Gaussian, Inc.
 340 Quinnipiac St., Bldg. 40, Wallingford CT 06492
  
  
 ---------------------------------------------------------------
 Warning -- This program may not be used in any manner that
 competes with the business of Gaussian, Inc. or will provide
 assistance to any competitor of Gaussian, Inc.  The licensee
 of this program is prohibited from giving any competitor of
 Gaussian, Inc. access to this program.  By using this program,
 the user acknowledges that Gaussian, Inc. is engaged in the
 business of creating and licensing software in the field of
 computational chemistry and represents and warrants to the
 licensee that it is not a competitor of Gaussian, Inc. and that
 it will not use this program in any manner prohibited above.
 ---------------------------------------------------------------
  

 Cite this work as:
 Gaussian 16, Revision C.01,
 M. J. Frisch, G. W. Trucks, H. B. Schlegel, G. E. Scuseria, 
 M. A. Robb, J. R. Cheeseman, G. Scalmani, V. Barone, 
 G. A. Petersson, H. Nakatsuji, X. Li, M. Caricato, A. V. Marenich, 
 J. Bloino, B. G. Janesko, R. Gomperts, B. Mennucci, H. P. Hratchian, 
 J. V. Ortiz, A. F. Izmaylov, J. L. Sonnenberg, D. Williams-Young, 
 F. Ding, F. Lipparini, F. Egidi, J. Goings, B. Peng, A. Petrone, 
 T. Henderson, D. Ranasinghe, V. G. Zakrzewski, J. Gao, N. Rega, 
 G. Zheng, W. Liang, M. Hada, M. Ehara, K. Toyota, R. Fukuda, 
 J. Hasegawa, M. Ishida, T. Nakajima, Y. Honda, O. Kitao, H. Nakai, 
 T. Vreven, K. Throssell, J. A. Montgomery, Jr., J. E. Peralta, 
 F. Ogliaro, M. J. Bearpark, J. J. Heyd, E. N. Brothers, K. N. Kudin, 
 V. N. Staroverov, T. A. Keith, R. Kobayashi, J. Normand, 
 K. Raghavachari, A. P. Rendell, J. C. Burant, S. S. Iyengar, 
 J. Tomasi, M. Cossi, J. M. Millam, M. Klene, C. Adamo, R. Cammi, 
 J. W. Ochterski, R. L. Martin, K. Morokuma, O. Farkas, 
 J. B. Foresman, and D. J. Fox, Gaussian, Inc., Wallingford CT, 2019.
 
 ******************************************
 Gaussian 16:  ES64L-G16RevC.01  3-Jul-2019
                22-Oct-2023 
 ******************************************
 %chk=IRCSiAttack_100step_maxcycles100_ForwardOnly.chk
 %mem=8GB
 %nprocs=16
 Will use up to   16 processors via shared memory.
 ----------------------------------------------------------------------
 # irc=(forward,calcfc,maxpoints=100,maxcycles=100,stepsize=2) wb97xd/d
 ef2tzvpp geom=connectivity
 ----------------------------------------------------------------------
 1/6=100,10=4,18=10,22=1,26=3,38=1,39=2,42=100,44=3,57=2,172=1/1,23;
 2/12=2,17=6,18=5,29=1,40=1/2;
 3/5=44,7=202,11=2,25=1,30=1,71=2,74=-58,140=1/1,2,3;
 4//1;
 5/5=2,38=5/2;
 8/6=4,10=90,11=11/1;
 11/6=1,8=1,9=11,15=111,16=1/1,2,10;
 10/6=1,13=1/2;
 6/7=2,8=2,9=2,10=2,28=1/1;
 7/10=1,25=1/1,2,3,16;
 1/6=100,10=4,18=10,22=1,26=3,39=2,42=100,44=3/23(2);
 2/29=1/2;
 99/5=20/99;
 2/29=1/2;
 3/5=44,7=202,11=2,25=1,30=1,71=2,74=-58,140=1/1,2,3;
 4/5=5,16=3,69=1/1;
 5/5=2,38=5/2;
 8/6=4,10=90,11=11/1;
 11/6=1,8=1,9=11,15=111,16=1/1,2,10;
 10/6=1,13=1/2;
 7/10=1,25=1/1,2,3,16;
 1/6=100,18=10,22=1,26=3,39=2,42=100,44=3/23(-8);
 2/29=1/2;
 6/7=2,8=2,9=2,10=2,19=2,28=1/1;
 99/5=20,9=1/99;
 ---------------------------------------------
 IRC calculation SiOH4 attack proper structure
 ---------------------------------------------
 Symbolic Z-matrix:
 Charge =  0 Multiplicity = 1
 C                     1.60762   0.69658   0.77747 
 H                     0.72137   1.04799   1.31097 
 H                     2.46739   0.86775   1.42761 
 C                     1.47049  -0.778     0.52507 
 H                     1.07406  -1.08992  -0.42348 
 H                     1.70779  -1.50584   1.285 
 O                     1.80984   1.35225  -0.43916 
 H                     3.05454   0.09968  -0.73228 
 O                     3.29017  -0.77004  -0.32764 
 H                     3.3365   -1.40422  -1.04542 
 Si                   -1.43319   0.02462  -0.16669 
 O                    -2.0961    1.2529    0.69898 
 H                    -2.81962   1.02845   1.27872 
 O                    -0.42356   0.48345  -1.25549 
 H                     0.93473   1.17946  -0.93363 
 O                    -0.60264  -0.92481   1.02628 
 H                    -0.93086  -1.82339   1.05883 
 O                    -2.61744  -1.04522  -0.60021 
 H                    -2.83214  -1.04428  -1.53 
 
 IRC-IRC-IRC-IRC-IRC-IRC-IRC-IRC-IRC-IRC-IRC-IRC-IRC-IRC-IRC-IRC-IRC-IRC
 ------------------------------------------------------------------------
 INPUT DATA FOR L123
 ------------------------------------------------------------------------
 GENERAL PARAMETERS:
 Rxn path following direction = Forward
 Maximum points per path      = 100
 Step size                    =   0.020 bohr
 Integration scheme           = HPC                                 
    Redo corrector integration= Yes                                 
    DWI Weight Power          =  2
    DWI will use Hessian update vectors when possible.
    Max correction cycles     = 100
 Initial Hessian              = CalcFC
 Hessian evaluation           = All updating
 Hessian updating method      = Bofill                              
 ------------------------------------------------------------------------
 IRC-IRC-IRC-IRC-IRC-IRC-IRC-IRC-IRC-IRC-IRC-IRC-IRC-IRC-IRC-IRC-IRC-IRC
                          Input orientation:                          
 ---------------------------------------------------------------------
 Center     Atomic      Atomic             Coordinates (Angstroms)
 Number     Number       Type             X           Y           Z
 ---------------------------------------------------------------------
      1          6           0        1.607619    0.696579    0.777475
      2          1           0        0.721370    1.047989    1.310972
      3          1           0        2.467391    0.867746    1.427607
      4          6           0        1.470488   -0.778002    0.525069
      5          1           0        1.074060   -1.089916   -0.423479
      6          1           0        1.707787   -1.505842    1.285005
      7          8           0        1.809837    1.352255   -0.439161
      8          1           0        3.054540    0.099675   -0.732277
      9          8           0        3.290169   -0.770044   -0.327638
     10          1           0        3.336504   -1.404220   -1.045420
     11         14           0       -1.433186    0.024618   -0.166691
     12          8           0       -2.096095    1.252897    0.698981
     13          1           0       -2.819620    1.028448    1.278720
     14          8           0       -0.423555    0.483446   -1.255487
     15          1           0        0.934731    1.179461   -0.933632
     16          8           0       -0.602644   -0.924806    1.026280
     17          1           0       -0.930865   -1.823387    1.058831
     18          8           0       -2.617437   -1.045221   -0.600214
     19          1           0       -2.832144   -1.044278   -1.530005
 ---------------------------------------------------------------------
                    Distance matrix (angstroms):
                    1          2          3          4          5
     1  C    0.000000
     2  H    1.092496   0.000000
     3  H    1.091411   1.759171   0.000000
     4  C    1.502299   2.124398   2.125295   0.000000
     5  H    2.217778   2.775490   3.033205   1.074332   0.000000
     6  H    2.262361   2.737836   2.496248   1.078687   1.869097
     7  O    1.396784   2.083340   2.037633   2.362814   2.550649
     8  H    2.174678   3.243123   2.366385   2.204644   2.330834
     9  O    2.490628   3.548100   2.537756   2.009579   2.241125
    10  H    3.274957   4.290086   3.468869   2.518054   2.367330
    11  Si   3.254147   2.805866   4.297342   3.090963   2.755795
    12  O    3.746085   2.890438   4.637310   4.107957   4.098606
    13  H    4.467866   3.541190   5.291547   4.715536   4.748229
    14  O    2.881672   2.866405   3.962859   2.889469   2.326060
    15  H    1.901011   2.258552   2.832255   2.499301   2.330180
    16  O    2.752464   2.392903   3.577628   2.137906   2.222700
    17  H    3.587937   3.322387   4.350441   2.672869   2.599028
    18  O    4.773154   4.379702   5.798878   4.248388   3.695995
    19  H    5.297787   5.007613   6.363048   4.775655   4.060162
                    6          7          8          9         10
     6  H    0.000000
     7  O    3.339443   0.000000
     8  H    2.908755   1.790016   0.000000
     9  O    2.376120   2.589975   0.987758   0.000000
    10  H    2.844982   3.208803   1.561814   0.958925   0.000000
    11  Si   3.783575   3.514834   4.523848   4.792439   5.056054
    12  O    4.735355   4.069588   5.468772   5.844491   6.294151
    13  H    5.188456   4.948519   6.277936   6.568445   7.015508
    14  O    3.867039   2.531652   3.538103   4.027889   4.212535
    15  H    3.568028   1.019887   2.387482   3.117032   3.529365
    16  O    2.396379   3.626650   4.185341   4.124444   4.476456
    17  H    2.667297   4.454226   4.773855   4.566065   4.776401
    18  O    4.740653   5.037319   5.787880   5.920290   5.981346
    19  H    5.361744   5.336788   6.049632   6.245287   6.198112
                   11         12         13         14         15
    11  Si   0.000000
    12  O    1.642408   0.000000
    13  H    2.240331   0.953919   0.000000
    14  O    1.554141   2.685031   3.529923   0.000000
    15  H    2.743883   3.443360   4.360327   1.559798   0.000000
    16  O    1.736198   2.660810   2.965453   2.687323   3.260785
    17  H    2.273622   3.309196   3.427639   3.306798   4.058012
    18  O    1.653768   2.690920   2.805596   2.753057   4.204554
    19  H    2.226713   3.284381   3.490742   2.865415   4.414751
                   16         17         18         19
    16  O    0.000000
    17  H    0.957202   0.000000
    18  O    2.592176   2.490482   0.000000
    19  H    3.394044   3.305140   0.954259   0.000000
 Symmetry turned off by external request.
 Stoichiometry    C2H10O6Si
 Framework group  C1[X(C2H10O6Si)]
 Deg. of freedom    51
 Full point group                 C1      NOp   1
 Rotational constants (GHZ):           2.3941462           0.7629715           0.7182235
 Standard basis: def2TZVPP (5D, 7F)
   430 basis functions,   647 primitive gaussians,   486 cartesian basis functions
    42 alpha electrons       42 beta electrons
       nuclear repulsion energy       641.5359690892 Hartrees.
 NAtoms=   19 NActive=   19 NUniq=   19 SFac= 1.00D+00 NAtFMM=   60 NAOKFM=F Big=F
 Integral buffers will be    131072 words long.
 Raffenetti 2 integral format.
 Two-electron integral symmetry is turned off.
 Nuclear repulsion after empirical dispersion term =      641.5254285144 Hartrees.
 One-electron integrals computed using PRISM.
   1 Symmetry operations used in ECPInt.
 ECPInt:  NShTT=   13203 NPrTT=   36019 LenC2=   12505 LenP2D=   26752.
 LDataN:  DoStor=T MaxTD1= 6 Len=  172
 NBasis=   430 RedAO= T EigKep=  1.69D-04  NBF=   430
 NBsUse=   430 1.00D-06 EigRej= -1.00D+00 NBFU=   430
 ExpMin= 7.01D-02 ExpMax= 4.48D+04 ExpMxC= 1.53D+03 IAcc=3 IRadAn=         5 AccDes= 0.00D+00
 Harris functional with IExCor= 4639 and IRadAn=       5 diagonalized for initial guess.
 HarFok:  IExCor= 4639 AccDes= 0.00D+00 IRadAn=         5 IDoV= 1 UseB2=F ITyADJ=14
 ICtDFT=  3500011 ScaDFX=  1.000000  1.000000  1.000000  1.000000
 FoFCou: FMM=F IPFlag=           0 FMFlag=      100000 FMFlg1=           0
         NFxFlg=           0 DoJE=T BraDBF=F KetDBF=T FulRan=T
         wScrn=  0.000000 ICntrl=       500 IOpCl=  0 I1Cent=   200000004 NGrid=           0
         NMat0=    1 NMatS0=      1 NMatT0=    0 NMatD0=    1 NMtDS0=    0 NMtDT0=    0
 Symmetry not used in FoFCou.
 Requested convergence on RMS density matrix=1.00D-08 within 128 cycles.
 Requested convergence on MAX density matrix=1.00D-06.
 Requested convergence on             energy=1.00D-06.
 No special actions if energy rises.
 Integral accuracy reduced to 1.0D-05 until final iterations.
 Initial convergence to 1.0D-05 achieved.  Increase integral accuracy.
 SCF Done:  E(RwB97XD) =  -823.262022716     A.U. after   14 cycles
            NFock= 14  Conv=0.88D-08     -V/T= 2.0034
 DoSCS=F DFT=T ScalE2(SS,OS)=  1.000000  1.000000
 Range of M.O.s used for correlation:     1   430
 NBasis=   430 NAE=    42 NBE=    42 NFC=     0 NFV=     0
 NROrb=    430 NOA=    42 NOB=    42 NVA=   388 NVB=   388

 **** Warning!!: The largest alpha MO coefficient is  0.13376654D+02

   1 Symmetry operations used in ECPInt.
 ECPInt:  NShTT=   13203 NPrTT=   36019 LenC2=   12505 LenP2D=   26752.
 LDataN:  DoStor=T MaxTD1= 7 Len=  274
 Number of processors reduced to  12 by ecpmxn.
 Symmetrizing basis deriv contribution to polar:
 IMax=3 JMax=2 DiffMx= 0.00D+00
 G2DrvN: will do    20 centers at a time, making    1 passes.
 Calling FoFCou, ICntrl=  3107 FMM=F I1Cent=   0 AccDes= 0.00D+00.
 End of G2Drv F.D. properties file   721 does not exist.
 End of G2Drv F.D. properties file   722 does not exist.
 End of G2Drv F.D. properties file   788 does not exist.
          IDoAtm=1111111111111111111
          Differentiating once with respect to nuclear coordinates.
 CalDSu exits because no D1Ps are significant.
          There are    60 degrees of freedom in the 1st order CPHF.  IDoFFX=6 NUNeed=     0.
     54 vectors produced by pass  0 Test12= 2.72D-14 1.67D-09 XBig12= 7.83D-02 7.62D-02.
 AX will form    54 AO Fock derivatives at one time.
     54 vectors produced by pass  1 Test12= 2.72D-14 1.67D-09 XBig12= 1.52D-02 1.75D-02.
     54 vectors produced by pass  2 Test12= 2.72D-14 1.67D-09 XBig12= 3.30D-04 2.65D-03.
     54 vectors produced by pass  3 Test12= 2.72D-14 1.67D-09 XBig12= 3.54D-06 2.25D-04.
     54 vectors produced by pass  4 Test12= 2.72D-14 1.67D-09 XBig12= 3.67D-08 2.66D-05.
     54 vectors produced by pass  5 Test12= 2.72D-14 1.67D-09 XBig12= 3.29D-10 2.17D-06.
     54 vectors produced by pass  6 Test12= 2.72D-14 1.67D-09 XBig12= 2.31D-12 1.65D-07.
     20 vectors produced by pass  7 Test12= 2.72D-14 1.67D-09 XBig12= 1.65D-14 1.27D-08.
 InvSVY:  IOpt=1 It=  1 EMax= 2.22D-16
 Solved reduced A of dimension   398 with    60 vectors.
 End of Minotr F.D. properties file   721 does not exist.
 End of Minotr F.D. properties file   722 does not exist.
 End of Minotr F.D. properties file   788 does not exist.

 **********************************************************************

            Population analysis using the SCF Density.

 **********************************************************************

 Alpha  occ. eigenvalues --  -66.26258 -19.31997 -19.25946 -19.24299 -19.22992
 Alpha  occ. eigenvalues --  -19.22164 -19.14524 -10.41098 -10.35510  -5.38091
 Alpha  occ. eigenvalues --   -3.72726  -3.72601  -3.72377  -1.18442  -1.12807
 Alpha  occ. eigenvalues --   -1.11782  -1.08578  -1.07303  -0.96942  -0.88423
 Alpha  occ. eigenvalues --   -0.74512  -0.69327  -0.64170  -0.62064  -0.60320
 Alpha  occ. eigenvalues --   -0.59277  -0.57870  -0.55862  -0.54356  -0.51656
 Alpha  occ. eigenvalues --   -0.49155  -0.47600  -0.46985  -0.45305  -0.44079
 Alpha  occ. eigenvalues --   -0.42294  -0.39977  -0.38758  -0.38422  -0.37744
 Alpha  occ. eigenvalues --   -0.33408  -0.33131
 Alpha virt. eigenvalues --    0.00269   0.08029   0.10486   0.12904   0.13600
 Alpha virt. eigenvalues --    0.15165   0.16145   0.17272   0.18293   0.19858
 Alpha virt. eigenvalues --    0.20828   0.22410   0.23945   0.26112   0.27662
 Alpha virt. eigenvalues --    0.28250   0.29663   0.31528   0.32449   0.33273
 Alpha virt. eigenvalues --    0.33743   0.35374   0.37967   0.40469   0.40788
 Alpha virt. eigenvalues --    0.41500   0.41850   0.43847   0.44316   0.44713
 Alpha virt. eigenvalues --    0.46110   0.47053   0.47699   0.48768   0.49340
 Alpha virt. eigenvalues --    0.50061   0.52399   0.53075   0.53759   0.54399
 Alpha virt. eigenvalues --    0.54652   0.55911   0.57069   0.57407   0.58798
 Alpha virt. eigenvalues --    0.59421   0.61041   0.61973   0.63181   0.63678
 Alpha virt. eigenvalues --    0.64845   0.66520   0.67025   0.69219   0.71879
 Alpha virt. eigenvalues --    0.72979   0.73426   0.74704   0.76462   0.77141
 Alpha virt. eigenvalues --    0.78580   0.80696   0.82953   0.84229   0.85634
 Alpha virt. eigenvalues --    0.86864   0.87902   0.88790   0.89185   0.90481
 Alpha virt. eigenvalues --    0.94041   0.94291   0.96337   0.96930   0.97563
 Alpha virt. eigenvalues --    0.99988   1.00352   1.02371   1.03900   1.04754
 Alpha virt. eigenvalues --    1.06385   1.07245   1.08737   1.10986   1.12702
 Alpha virt. eigenvalues --    1.13674   1.14793   1.16906   1.18432   1.19000
 Alpha virt. eigenvalues --    1.20435   1.22795   1.23435   1.25511   1.27173
 Alpha virt. eigenvalues --    1.28776   1.29788   1.31106   1.33110   1.35399
 Alpha virt. eigenvalues --    1.35579   1.37342   1.37844   1.39145   1.40167
 Alpha virt. eigenvalues --    1.43042   1.43605   1.44577   1.46843   1.47589
 Alpha virt. eigenvalues --    1.48563   1.51348   1.53066   1.53238   1.55620
 Alpha virt. eigenvalues --    1.56457   1.59373   1.60320   1.61633   1.63866
 Alpha virt. eigenvalues --    1.68036   1.70129   1.72335   1.74370   1.79036
 Alpha virt. eigenvalues --    1.81114   1.83246   1.85081   1.85289   1.88590
 Alpha virt. eigenvalues --    1.89050   1.91234   1.92125   1.94468   1.98829
 Alpha virt. eigenvalues --    1.99842   2.01778   2.03590   2.04824   2.06567
 Alpha virt. eigenvalues --    2.08771   2.11756   2.12633   2.13451   2.17217
 Alpha virt. eigenvalues --    2.17798   2.18281   2.20230   2.22352   2.23836
 Alpha virt. eigenvalues --    2.24787   2.26876   2.28581   2.31994   2.33006
 Alpha virt. eigenvalues --    2.34311   2.34908   2.39593   2.41887   2.44481
 Alpha virt. eigenvalues --    2.46931   2.53549   2.56673   2.60137   2.64098
 Alpha virt. eigenvalues --    2.66290   2.67854   2.70133   2.73716   2.75592
 Alpha virt. eigenvalues --    2.78771   2.79851   2.82475   2.84850   2.86757
 Alpha virt. eigenvalues --    2.88534   2.91163   2.92405   2.94448   2.95503
 Alpha virt. eigenvalues --    2.98946   3.00500   3.03043   3.04339   3.05648
 Alpha virt. eigenvalues --    3.06610   3.08448   3.10455   3.10832   3.14099
 Alpha virt. eigenvalues --    3.15666   3.17406   3.19434   3.22140   3.26407
 Alpha virt. eigenvalues --    3.27998   3.28861   3.31629   3.31911   3.34089
 Alpha virt. eigenvalues --    3.35343   3.35848   3.36396   3.37993   3.40018
 Alpha virt. eigenvalues --    3.41346   3.41993   3.42972   3.43210   3.45303
 Alpha virt. eigenvalues --    3.46385   3.47098   3.47924   3.49325   3.51278
 Alpha virt. eigenvalues --    3.52995   3.55002   3.57513   3.59403   3.61170
 Alpha virt. eigenvalues --    3.61429   3.65148   3.66794   3.69153   3.70253
 Alpha virt. eigenvalues --    3.73856   3.75181   3.76515   3.78069   3.80336
 Alpha virt. eigenvalues --    3.82034   3.83492   3.84583   3.85878   3.88140
 Alpha virt. eigenvalues --    3.91344   3.93168   3.95185   3.96563   3.97298
 Alpha virt. eigenvalues --    3.98861   4.00571   4.05661   4.06914   4.07355
 Alpha virt. eigenvalues --    4.11323   4.11755   4.11846   4.14404   4.14893
 Alpha virt. eigenvalues --    4.16191   4.17673   4.17926   4.18651   4.20067
 Alpha virt. eigenvalues --    4.22849   4.23798   4.24812   4.26427   4.26649
 Alpha virt. eigenvalues --    4.30615   4.31748   4.35444   4.37424   4.38032
 Alpha virt. eigenvalues --    4.39483   4.42556   4.43827   4.47574   4.49287
 Alpha virt. eigenvalues --    4.56896   4.58847   4.62507   4.67462   4.68048
 Alpha virt. eigenvalues --    4.71918   4.75434   4.77072   4.80733   4.82898
 Alpha virt. eigenvalues --    4.84971   4.87210   4.88446   4.95090   4.96095
 Alpha virt. eigenvalues --    4.98909   5.00373   5.02906   5.05219   5.06585
 Alpha virt. eigenvalues --    5.08231   5.09670   5.10863   5.14123   5.16854
 Alpha virt. eigenvalues --    5.21832   5.27383   5.29441   5.32849   5.33342
 Alpha virt. eigenvalues --    5.34282   5.36662   5.39100   5.39835   5.41038
 Alpha virt. eigenvalues --    5.44539   5.46086   5.48504   5.51624   5.51996
 Alpha virt. eigenvalues --    5.53693   5.55016   5.56331   5.61116   5.66024
 Alpha virt. eigenvalues --    5.67415   5.67923   5.72995   5.74305   5.77464
 Alpha virt. eigenvalues --    5.79077   5.81133   5.87351   5.95039   6.00209
 Alpha virt. eigenvalues --    6.07504   6.09192   6.15583   6.21715   6.43790
 Alpha virt. eigenvalues --    6.47458   6.52760   6.54243   6.58069   6.58830
 Alpha virt. eigenvalues --    6.61773   6.63214   6.64902   6.65846   6.66870
 Alpha virt. eigenvalues --    6.68097   6.68816   6.70757   6.71601   6.71739
 Alpha virt. eigenvalues --    6.73268   6.74909   6.75312   6.77156   6.78166
 Alpha virt. eigenvalues --    6.81433   6.82871   6.83877   6.85701   6.87735
 Alpha virt. eigenvalues --    6.89732   6.92207   6.93671   6.99746   7.03143
 Alpha virt. eigenvalues --    7.06596   7.08281   7.15340   7.21716   7.27511
 Alpha virt. eigenvalues --    7.29738   7.33802   7.36087   7.37696   7.40578
 Alpha virt. eigenvalues --    7.43495   7.46697   7.50986   7.57369   7.67235
 Alpha virt. eigenvalues --    7.68666   7.71813   7.79010   7.84874  12.31507
 Alpha virt. eigenvalues --   23.40939  23.53423  43.84853  43.87899  43.94676
 Alpha virt. eigenvalues --   43.97255  44.05634  44.31461
          Condensed to atoms (all electrons):
               1          2          3          4          5          6
     1  C    4.740605   0.404131   0.414152   0.252482  -0.028748  -0.020704
     2  H    0.404131   0.560511  -0.024196  -0.034871   0.000599   0.004053
     3  H    0.414152  -0.024196   0.569582  -0.032144   0.002891  -0.003161
     4  C    0.252482  -0.034871  -0.032144   4.995005   0.423418   0.372591
     5  H   -0.028748   0.000599   0.002891   0.423418   0.452000  -0.009230
     6  H   -0.020704   0.004053  -0.003161   0.372591  -0.009230   0.492778
     7  O    0.235572  -0.022077  -0.029901  -0.049823  -0.009247   0.006101
     8  H   -0.028139   0.002786  -0.004892  -0.013427   0.000753   0.003633
     9  O    0.013854   0.000847  -0.003361   0.048175  -0.017023  -0.004168
    10  H   -0.004218  -0.000198   0.000525   0.000415  -0.000590   0.000727
    11  Si   0.017832  -0.007943   0.000582  -0.018421  -0.002932   0.002038
    12  O   -0.010186   0.009330  -0.000056   0.001448  -0.000086   0.000018
    13  H    0.000394  -0.000556  -0.000003  -0.000009  -0.000084  -0.000007
    14  O    0.019977  -0.008988   0.000132  -0.016098   0.020872   0.002772
    15  H   -0.034549  -0.005240   0.004281   0.008473   0.000807  -0.000112
    16  O   -0.013550  -0.001186   0.000399   0.047439  -0.019387  -0.006338
    17  H    0.001681   0.000615  -0.000102  -0.002864   0.000681  -0.001275
    18  O   -0.000387   0.000136  -0.000006   0.000329  -0.001007  -0.000068
    19  H   -0.000038  -0.000014   0.000000   0.000087  -0.000031  -0.000007
               7          8          9         10         11         12
     1  C    0.235572  -0.028139   0.013854  -0.004218   0.017832  -0.010186
     2  H   -0.022077   0.002786   0.000847  -0.000198  -0.007943   0.009330
     3  H   -0.029901  -0.004892  -0.003361   0.000525   0.000582  -0.000056
     4  C   -0.049823  -0.013427   0.048175   0.000415  -0.018421   0.001448
     5  H   -0.009247   0.000753  -0.017023  -0.000590  -0.002932  -0.000086
     6  H    0.006101   0.003633  -0.004168   0.000727   0.002038   0.000018
     7  O    8.035948   0.081346  -0.051047   0.001810  -0.000555   0.000229
     8  H    0.081346   0.431158   0.306433  -0.011854  -0.000389  -0.000001
     9  O   -0.051047   0.306433   7.643336   0.321711  -0.000374   0.000000
    10  H    0.001810  -0.011854   0.321711   0.500256  -0.000111  -0.000000
    11  Si  -0.000555  -0.000389  -0.000374  -0.000111  11.527905   0.449318
    12  O    0.000229  -0.000001   0.000000  -0.000000   0.449318   7.704400
    13  H    0.000011  -0.000000  -0.000000  -0.000000  -0.016700   0.317730
    14  O   -0.073050   0.001257  -0.000330  -0.000060   0.606444  -0.027998
    15  H    0.309968  -0.001975   0.001285   0.000372  -0.010848   0.000030
    16  O    0.001916  -0.000287   0.001981  -0.000091   0.291791  -0.037067
    17  H   -0.000080   0.000022  -0.000043  -0.000009  -0.014602   0.001266
    18  O   -0.000034   0.000001   0.000001   0.000000   0.436082  -0.028347
    19  H    0.000004  -0.000000  -0.000000   0.000000  -0.023316  -0.000430
              13         14         15         16         17         18
     1  C    0.000394   0.019977  -0.034549  -0.013550   0.001681  -0.000387
     2  H   -0.000556  -0.008988  -0.005240  -0.001186   0.000615   0.000136
     3  H   -0.000003   0.000132   0.004281   0.000399  -0.000102  -0.000006
     4  C   -0.000009  -0.016098   0.008473   0.047439  -0.002864   0.000329
     5  H   -0.000084   0.020872   0.000807  -0.019387   0.000681  -0.001007
     6  H   -0.000007   0.002772  -0.000112  -0.006338  -0.001275  -0.000068
     7  O    0.000011  -0.073050   0.309968   0.001916  -0.000080  -0.000034
     8  H   -0.000000   0.001257  -0.001975  -0.000287   0.000022   0.000001
     9  O   -0.000000  -0.000330   0.001285   0.001981  -0.000043   0.000001
    10  H   -0.000000  -0.000060   0.000372  -0.000091  -0.000009   0.000000
    11  Si  -0.016700   0.606444  -0.010848   0.291791  -0.014602   0.436082
    12  O    0.317730  -0.027998   0.000030  -0.037067   0.001266  -0.028347
    13  H    0.533897   0.001434  -0.000018   0.000653  -0.000267  -0.001732
    14  O    0.001434   8.117861   0.108131  -0.034844   0.000464  -0.027841
    15  H   -0.000018   0.108131   0.348862   0.001244  -0.000011  -0.000009
    16  O    0.000653  -0.034844   0.001244   7.885367   0.324847  -0.034342
    17  H   -0.000267   0.000464  -0.000011   0.324847   0.503461   0.004476
    18  O   -0.001732  -0.027841  -0.000009  -0.034342   0.004476   7.762118
    19  H    0.000162   0.000284  -0.000037   0.001573  -0.000256   0.338714
              19
     1  C   -0.000038
     2  H   -0.000014
     3  H    0.000000
     4  C    0.000087
     5  H   -0.000031
     6  H   -0.000007
     7  O    0.000004
     8  H   -0.000000
     9  O   -0.000000
    10  H    0.000000
    11  Si  -0.023316
    12  O   -0.000430
    13  H    0.000162
    14  O    0.000284
    15  H   -0.000037
    16  O    0.001573
    17  H   -0.000256
    18  O    0.338714
    19  H    0.494110
 Mulliken charges:
               1
     1  C    0.039837
     2  H    0.122263
     3  H    0.105278
     4  C    0.017795
     5  H    0.186341
     6  H    0.160359
     7  O   -0.437091
     8  H    0.233573
     9  O   -0.261276
    10  H    0.191314
    11  Si   0.764198
    12  O   -0.379600
    13  H    0.165094
    14  O   -0.690418
    15  H    0.269346
    16  O   -0.410119
    17  H    0.181996
    18  O   -0.448084
    19  H    0.189195
 Sum of Mulliken charges =  -0.00000
 Mulliken charges with hydrogens summed into heavy atoms:
               1
     1  C    0.267379
     4  C    0.364496
     7  O   -0.167746
     9  O    0.163611
    11  Si   0.764198
    12  O   -0.214506
    14  O   -0.690418
    16  O   -0.228123
    18  O   -0.258890
 APT charges:
               1
     1  C   -0.553836
     2  H    0.170694
     3  H    0.570208
     4  C   -0.390843
     5  H    0.216631
     6  H    0.554476
     7  O   -0.348030
     8  H    0.155208
     9  O   -0.489831
    10  H    0.540807
    11  Si   0.451352
    12  O   -0.782770
    13  H    0.697089
    14  O   -0.729622
    15  H    0.172451
    16  O   -0.718818
    17  H    0.550502
    18  O   -0.700532
    19  H    0.634865
 Sum of APT charges =  -0.00000
 APT charges with hydrogens summed into heavy atoms:
               1
     1  C    0.187066
     4  C    0.380263
     7  O   -0.175579
     9  O    0.206184
    11  Si   0.451352
    12  O   -0.085682
    14  O   -0.729622
    16  O   -0.168315
    18  O   -0.065667
 Electronic spatial extent (au):  <R**2>=           1669.7111
 Charge=             -0.0000 electrons
 Dipole moment (field-independent basis, Debye):
    X=              3.0251    Y=             -5.0684    Z=              1.6578  Tot=              6.1309
 Quadrupole moment (field-independent basis, Debye-Ang):
   XX=            -52.2754   YY=            -59.9807   ZZ=            -56.8365
   XY=             -5.1169   XZ=             -2.5658   YZ=              3.9696
 Traceless Quadrupole moment (field-independent basis, Debye-Ang):
   XX=              4.0888   YY=             -3.6165   ZZ=             -0.4723
   XY=             -5.1169   XZ=             -2.5658   YZ=              3.9696
 Octapole moment (field-independent basis, Debye-Ang**2):
  XXX=             -2.8720  YYY=            -25.9378  ZZZ=             -1.3221  XYY=              9.4223
  XXY=            -11.8003  XXZ=            -14.5476  XZZ=             -1.2735  YZZ=             -8.9935
  YYZ=              1.8967  XYZ=              4.4071
 Hexadecapole moment (field-independent basis, Debye-Ang**3):
 XXXX=          -1314.3773 YYYY=           -340.8642 ZZZZ=           -258.4278 XXXY=            -58.1124
 XXXZ=            -64.2395 YYYX=            -19.9988 YYYZ=             -5.2060 ZZZX=             -6.9904
 ZZZY=             15.2758 XXYY=           -281.8707 XXZZ=           -184.7242 YYZZ=            -85.1522
 XXYZ=             45.9196 YYXZ=            -10.0158 ZZXY=             -1.9052
 N-N= 6.415254285144D+02 E-N=-3.233145350009D+03  KE= 8.204633211397D+02
  Exact polarizability:       0.000       0.000       0.000       0.000       0.000       0.000
 Approx polarizability:      91.429       1.561      75.887      -5.652      -0.653      76.667
   1 Symmetry operations used in ECPInt.
 ECPInt:  NShTT=   13203 NPrTT=   36019 LenC2=   12505 LenP2D=   26752.
 LDataN:  DoStor=T MaxTD1= 8 Len=  415
 Calling FoFJK, ICntrl=    100127 FMM=F ISym2X=0 I1Cent= 0 IOpClX= 0 NMat=1 NMatS=1 NMatT=0.
 -------------------------------------------------------------------
 Center     Atomic                   Forces (Hartrees/Bohr)
 Number     Number              X              Y              Z
 -------------------------------------------------------------------
      1        6          -0.000000101    0.000003071   -0.000003253
      2        1          -0.000000372    0.000003442   -0.000003793
      3        1           0.000000175    0.000005794   -0.000004753
      4        6           0.000001908    0.000002307    0.000000638
      5        1           0.000000106    0.000000026    0.000001816
      6        1           0.000002848    0.000004582    0.000002237
      7        8          -0.000000983    0.000000308   -0.000004418
      8        1          -0.000001115    0.000000877   -0.000003321
      9        8           0.000000186    0.000002334   -0.000001394
     10        1           0.000000312    0.000000462    0.000000384
     11       14          -0.000000734   -0.000002382    0.000002222
     12        8          -0.000000670   -0.000001765   -0.000001239
     13        1          -0.000000113   -0.000000802    0.000000248
     14        8          -0.000002164   -0.000005076   -0.000000634
     15        1          -0.000003557   -0.000001998   -0.000004551
     16        8           0.000001788    0.000001225    0.000002630
     17        1           0.000002847    0.000000862    0.000006257
     18        8           0.000000285   -0.000005303    0.000005083
     19        1          -0.000000646   -0.000007964    0.000005841
 -------------------------------------------------------------------
 Cartesian Forces:  Max     0.000007964 RMS     0.000002925
 IRC-IRC-IRC-IRC-IRC-IRC-IRC-IRC-IRC-IRC-IRC-IRC-IRC-IRC-IRC-IRC-IRC-IRC
          ******** Start new reaction path calculation ********
 Supplied step size of   0.0200 bohr.
    Integration on MW PES will use step size of   0.0490 sqrt(amu)*bohr.
 Point Number:   0          Path Number:   1
 Calculating another point on the path.
 IRC-IRC-IRC-IRC-IRC-IRC-IRC-IRC-IRC-IRC-IRC-IRC-IRC-IRC-IRC-IRC-IRC-IRC
                          Input orientation:                          
 ---------------------------------------------------------------------
 Center     Atomic      Atomic             Coordinates (Angstroms)
 Number     Number       Type             X           Y           Z
 ---------------------------------------------------------------------
      1          6           0        1.648860    0.679962    0.788160
      2          1           0        0.764130    1.033940    1.322685
      3          1           0        2.509616    0.848821    1.437556
      4          6           0        1.506833   -0.794518    0.537255
      5          1           0        1.117072   -1.106831   -0.413858
      6          1           0        1.747274   -1.522392    1.296158
      7          8           0        1.851662    1.335683   -0.428239
      8          1           0        3.098021    0.081936   -0.722139
      9          8           0        3.334467   -0.787111   -0.317895
     10          1           0        3.382115   -1.420620   -1.036056
     11         14           0       -1.391372    0.008397   -0.156514
     12          8           0       -2.054108    1.235999    0.709896
     13          1           0       -2.778413    1.011971    1.288823
     14          8           0       -0.381926    0.466829   -1.245200
     15          1           0        0.977285    1.163608   -0.923126
     16          8           0       -0.558687   -0.941013    1.036593
     17          1           0       -0.884789   -1.840496    1.068069
     18          8           0       -2.575339   -1.061933   -0.589126
     19          1           0       -2.789267   -1.062191   -1.519115
 ---------------------------------------------------------------------
                    Distance matrix (angstroms):
                    1          2          3          4          5
     1  C    0.000000
     2  H    1.092596   0.000000
     3  H    1.091389   1.759030   0.000000
     4  C    1.502403   2.124092   2.125247   0.000000
     5  H    2.218169   2.779038   3.031746   1.074276   0.000000
     6  H    2.262325   2.738998   2.494757   1.078678   1.869224
     7  O    1.396684   2.083149   2.037432   2.364073   2.550628
     8  H    2.176856   3.245715   2.366139   2.210457   2.330743
     9  O    2.493378   3.551671   2.537372   2.017816   2.242381
    10  H    3.277862   4.294458   3.468482   2.526656   2.369812
    11  Si   3.253678   2.808194   4.297101   3.086354   2.757218
    12  O    3.745301   2.891159   4.637561   4.102817   4.099764
    13  H    4.467845   3.542773   5.292636   4.710795   4.750079
    14  O    2.881679   2.868640   3.962842   2.887135   2.326915
    15  H    1.900902   2.259628   2.831952   2.499478   2.331049
    16  O    2.750008   2.394188   3.574740   2.130065   2.222493
    17  H    3.584750   3.323574   4.346370   2.663774   2.596501
    18  O    4.772313   4.381753   5.797860   4.243156   3.696841
    19  H    5.296753   5.009613   6.361763   4.770407   4.059935
                    6          7          8          9         10
     6  H    0.000000
     7  O    3.339617   0.000000
     8  H    2.910654   1.792114   0.000000
     9  O    2.380124   2.591746   0.987200   0.000000
    10  H    2.849962   3.210753   1.561066   0.958832   0.000000
    11  Si   3.782151   3.514654   4.525482   4.795043   5.059828
    12  O    4.733173   4.069438   5.470559   5.846886   6.297499
    13  H    5.186992   4.948806   6.280239   6.571571   7.019591
    14  O    3.866392   2.532044   3.540024   4.030365   4.215947
    15  H    3.568291   1.019342   2.389128   3.118961   3.531882
    16  O    2.392244   3.624757   4.184624   4.124922   4.478372
    17  H    2.661009   4.451428   4.771096   4.564279   4.775993
    18  O    4.738280   5.037140   5.789053   5.922407   5.984952
    19  H    5.358894   5.336481   6.050153   6.246496   6.200626
                   11         12         13         14         15
    11  Si   0.000000
    12  O    1.642222   0.000000
    13  H    2.240545   0.953919   0.000000
    14  O    1.553827   2.685184   3.530099   0.000000
    15  H    2.744584   3.444030   4.361304   1.560989   0.000000
    16  O    1.737310   2.661277   2.967313   2.686976   3.260236
    17  H    2.274782   3.310652   3.430905   3.305727   4.056700
    18  O    1.653643   2.690656   2.805175   2.752926   4.205439
    19  H    2.226421   3.284909   3.490957   2.864999   4.415461
                   16         17         18         19
    16  O    0.000000
    17  H    0.957289   0.000000
    18  O    2.593158   2.492071   0.000000
    19  H    3.394380   3.305498   0.954277   0.000000
 Symmetry turned off by external request.
 Stoichiometry    C2H10O6Si
 Framework group  C1[X(C2H10O6Si)]
 Deg. of freedom    51
 Full point group                 C1      NOp   1
 Rotational constants (GHZ):           2.3937798           0.7629336           0.7182268
 Standard basis: def2TZVPP (5D, 7F)
   430 basis functions,   647 primitive gaussians,   486 cartesian basis functions
    42 alpha electrons       42 beta electrons
       nuclear repulsion energy       641.5124767024 Hartrees.
 NAtoms=   19 NActive=   19 NUniq=   19 SFac= 1.00D+00 NAtFMM=   60 NAOKFM=F Big=F
 Integral buffers will be    131072 words long.
 Raffenetti 2 integral format.
 Two-electron integral symmetry is turned off.
 Nuclear repulsion after empirical dispersion term =      641.5019346457 Hartrees.
 One-electron integrals computed using PRISM.
   1 Symmetry operations used in ECPInt.
 ECPInt:  NShTT=   13203 NPrTT=   36019 LenC2=   12505 LenP2D=   26750.
 LDataN:  DoStor=T MaxTD1= 6 Len=  172
 NBasis=   430 RedAO= T EigKep=  1.69D-04  NBF=   430
 NBsUse=   430 1.00D-06 EigRej= -1.00D+00 NBFU=   430
 Initial guess from the checkpoint file:  "IRCSiAttack_100step_maxcycles100_ForwardOnly.chk"
 B after Tr=     0.079336   -0.031369    0.019989
         Rot=    1.000000   -0.000005    0.000001   -0.000005 Ang=  -0.00 deg.
 ExpMin= 7.01D-02 ExpMax= 4.48D+04 ExpMxC= 1.53D+03 IAcc=3 IRadAn=         5 AccDes= 0.00D+00
 Harris functional with IExCor= 4639 and IRadAn=       5 diagonalized for initial guess.
 HarFok:  IExCor= 4639 AccDes= 0.00D+00 IRadAn=         5 IDoV= 1 UseB2=F ITyADJ=14
 ICtDFT=  3500011 ScaDFX=  1.000000  1.000000  1.000000  1.000000
 FoFCou: FMM=F IPFlag=           0 FMFlag=      100000 FMFlg1=           0
         NFxFlg=           0 DoJE=T BraDBF=F KetDBF=T FulRan=T
         wScrn=  0.000000 ICntrl=       500 IOpCl=  0 I1Cent=   200000004 NGrid=           0
         NMat0=    1 NMatS0=      1 NMatT0=    0 NMatD0=    1 NMtDS0=    0 NMtDT0=    0
 Symmetry not used in FoFCou.
 Requested convergence on RMS density matrix=1.00D-08 within 128 cycles.
 Requested convergence on MAX density matrix=1.00D-06.
 Requested convergence on             energy=1.00D-06.
 No special actions if energy rises.
 Integral accuracy reduced to 1.0D-05 until final iterations.
 Initial convergence to 1.0D-05 achieved.  Increase integral accuracy.
 SCF Done:  E(RwB97XD) =  -823.262030471     A.U. after   10 cycles
            NFock= 10  Conv=0.37D-08     -V/T= 2.0034
 DoSCS=F DFT=T ScalE2(SS,OS)=  1.000000  1.000000
 Range of M.O.s used for correlation:     1   430
 NBasis=   430 NAE=    42 NBE=    42 NFC=     0 NFV=     0
 NROrb=    430 NOA=    42 NOB=    42 NVA=   388 NVB=   388

 **** Warning!!: The largest alpha MO coefficient is  0.13516529D+02

 Symmetrizing basis deriv contribution to polar:
 IMax=3 JMax=2 DiffMx= 0.00D+00
   1 Symmetry operations used in ECPInt.
 ECPInt:  NShTT=   13203 NPrTT=   36019 LenC2=   12505 LenP2D=   26750.
 LDataN:  DoStor=T MaxTD1= 7 Len=  274
 Calling FoFJK, ICntrl=      2127 FMM=F ISym2X=0 I1Cent= 0 IOpClX= 0 NMat=1 NMatS=1 NMatT=0.
 -------------------------------------------------------------------
 Center     Atomic                   Forces (Hartrees/Bohr)
 Number     Number              X              Y              Z
 -------------------------------------------------------------------
      1        6          -0.000102092   -0.000001222    0.000014110
      2        1           0.000013004    0.000033858    0.000008564
      3        1           0.000002427   -0.000023569   -0.000014117
      4        6          -0.000822105    0.000006321    0.000222008
      5        1           0.000019511    0.000000090    0.000002442
      6        1          -0.000026404    0.000006856    0.000007881
      7        8          -0.000018519    0.000002325    0.000058170
      8        1           0.000015987   -0.000009461   -0.000010255
      9        8           0.000461758   -0.000094568   -0.000170020
     10        1           0.000046196    0.000003463   -0.000014212
     11       14          -0.000040162    0.000125906   -0.000142841
     12        8           0.000012145   -0.000062974    0.000062999
     13        1          -0.000008359    0.000000706   -0.000006073
     14        8          -0.000060341   -0.000010607   -0.000059803
     15        1           0.000003915    0.000006770   -0.000005822
     16        8           0.000402859    0.000071361   -0.000053382
     17        1           0.000054858   -0.000002461   -0.000010815
     18        8           0.000034256   -0.000028418    0.000100595
     19        1           0.000011066   -0.000024374    0.000010570
 -------------------------------------------------------------------
 Cartesian Forces:  Max     0.000822105 RMS     0.000147287
 IRC-IRC-IRC-IRC-IRC-IRC-IRC-IRC-IRC-IRC-IRC-IRC-IRC-IRC-IRC-IRC-IRC-IRC
 Pt  1 Step number   1 out of a maximum of 100
 Modified Bulirsch-Stoer Extrapolation Cycles:
    EPS =    0.000010000000000
      PEZero:  N= 2 I= 1 D=  1.28D-04 Err=  2.84D-04
      PEZero:  N= 3 I= 2 D=  1.28D-04 Err=  1.89D-04
      PEZero:  N= 3 I= 1 D=  2.55D-04 Err=  2.48D-07
 Maximum DWI energy   std dev =  0.000000004 at pt    51
 Maximum DWI gradient std dev =  0.042001323 at pt     2
 CORRECTOR INTEGRATION CONVERGENCE:
   Recorrection delta-x convergence threshold:    0.010000
   Delta-x Convergence Met
 Point Number:   1          Path Number:   1
   CHANGE IN THE REACTION COORDINATE =    0.04901
   NET REACTION COORDINATE UP TO THIS POINT =    0.04901
  # OF POINTS ALONG THE PATH =   1
  # OF STEPS =   1

 Calculating another point on the path.
 IRC-IRC-IRC-IRC-IRC-IRC-IRC-IRC-IRC-IRC-IRC-IRC-IRC-IRC-IRC-IRC-IRC-IRC
                          Input orientation:                          
 ---------------------------------------------------------------------
 Center     Atomic      Atomic             Coordinates (Angstroms)
 Number     Number       Type             X           Y           Z
 ---------------------------------------------------------------------
      1          6           0        1.648169    0.679988    0.788200
      2          1           0        0.764956    1.036595    1.323684
      3          1           0        2.509918    0.846664    1.436796
      4          6           0        1.501290   -0.794415    0.538888
      5          1           0        1.118200   -1.107236   -0.414702
      6          1           0        1.744986   -1.522185    1.296845
      7          8           0        1.851547    1.335683   -0.427999
      8          1           0        3.099453    0.080790   -0.722702
      9          8           0        3.336813   -0.787552   -0.318781
     10          1           0        3.385833   -1.420446   -1.037267
     11         14           0       -1.391490    0.008749   -0.156935
     12          8           0       -2.054049    1.235668    0.710223
     13          1           0       -2.779120    1.012045    1.288349
     14          8           0       -0.382229    0.466777   -1.245508
     15          1           0        0.977889    1.164268   -0.923310
     16          8           0       -0.556600   -0.940607    1.036325
     17          1           0       -0.880593   -1.840962    1.067049
     18          8           0       -2.575172   -1.062088   -0.588560
     19          1           0       -2.788244   -1.064002   -1.518748
 ---------------------------------------------------------------------
                    Distance matrix (angstroms):
                    1          2          3          4          5
     1  C    0.000000
     2  H    1.092692   0.000000
     3  H    1.091361   1.758909   0.000000
     4  C    1.502529   2.123838   2.125255   0.000000
     5  H    2.218561   2.782585   3.030289   1.074221   0.000000
     6  H    2.262224   2.740170   2.493221   1.078673   1.869342
     7  O    1.396581   2.082913   2.037168   2.365347   2.550652
     8  H    2.179011   3.248252   2.365914   2.216240   2.330586
     9  O    2.496117   3.555229   2.537019   2.026028   2.243578
    10  H    3.280797   4.298853   3.468141   2.535288   2.372308
    11  Si   3.253209   2.810508   4.296866   3.081788   2.758697
    12  O    3.744500   2.891842   4.637782   4.097686   4.100954
    13  H    4.467807   3.544337   5.293704   4.706049   4.751930
    14  O    2.881656   2.870796   3.962774   2.884843   2.327883
    15  H    1.900808   2.260669   2.831622   2.499682   2.331973
    16  O    2.747527   2.395499   3.571869   2.122198   2.222206
    17  H    3.581562   3.324760   4.342305   2.654728   2.594054
    18  O    4.771468   4.383788   5.796856   4.237963   3.697737
    19  H    5.295779   5.011702   6.360535   4.765149   4.059691
                    6          7          8          9         10
     6  H    0.000000
     7  O    3.339738   0.000000
     8  H    2.912504   1.794123   0.000000
     9  O    2.384082   2.593467   0.986666   0.000000
    10  H    2.854962   3.212707   1.560344   0.958739   0.000000
    11  Si   3.780836   3.514473   4.527014   4.797618   5.063635
    12  O    4.731020   4.069304   5.472258   5.849244   6.300871
    13  H    5.185550   4.949108   6.282451   6.574652   7.023684
    14  O    3.865821   2.532405   3.541811   4.032795   4.219392
    15  H    3.568551   1.018820   2.390649   3.120829   3.534391
    16  O    2.388180   3.622832   4.183797   4.125337   4.480269
    17  H    2.654825   4.448689   4.768345   4.562534   4.775707
    18  O    4.736054   5.036956   5.790124   5.924501   5.988600
    19  H    5.356088   5.336280   6.050555   6.247613   6.203072
                   11         12         13         14         15
    11  Si   0.000000
    12  O    1.642035   0.000000
    13  H    2.240751   0.953921   0.000000
    14  O    1.553508   2.685341   3.530274   0.000000
    15  H    2.745271   3.444732   4.362308   1.562123   0.000000
    16  O    1.738444   2.661742   2.969168   2.686614   3.259651
    17  H    2.276089   3.312096   3.434098   3.304836   4.055477
    18  O    1.653510   2.690370   2.804713   2.752818   4.206300
    19  H    2.226265   3.285702   3.491397   2.864760   4.416276
                   16         17         18         19
    16  O    0.000000
    17  H    0.957369   0.000000
    18  O    2.594155   2.493849   0.000000
    19  H    3.394681   3.305926   0.954282   0.000000
 Symmetry turned off by external request.
 Stoichiometry    C2H10O6Si
 Framework group  C1[X(C2H10O6Si)]
 Deg. of freedom    51
 Full point group                 C1      NOp   1
 Rotational constants (GHZ):           2.3934187           0.7628969           0.7182331
 Standard basis: def2TZVPP (5D, 7F)
   430 basis functions,   647 primitive gaussians,   486 cartesian basis functions
    42 alpha electrons       42 beta electrons
       nuclear repulsion energy       641.4901229716 Hartrees.
 NAtoms=   19 NActive=   19 NUniq=   19 SFac= 1.00D+00 NAtFMM=   60 NAOKFM=F Big=F
 Integral buffers will be    131072 words long.
 Raffenetti 2 integral format.
 Two-electron integral symmetry is turned off.
 Nuclear repulsion after empirical dispersion term =      641.4795794504 Hartrees.
 One-electron integrals computed using PRISM.
   1 Symmetry operations used in ECPInt.
 ECPInt:  NShTT=   13203 NPrTT=   36019 LenC2=   12505 LenP2D=   26748.
 LDataN:  DoStor=T MaxTD1= 6 Len=  172
 NBasis=   430 RedAO= T EigKep=  1.69D-04  NBF=   430
 NBsUse=   430 1.00D-06 EigRej= -1.00D+00 NBFU=   430
 Initial guess from the checkpoint file:  "IRCSiAttack_100step_maxcycles100_ForwardOnly.chk"
 B after Tr=     0.000114   -0.000027   -0.000034
         Rot=    1.000000    0.000018   -0.000007   -0.000013 Ang=   0.00 deg.
 ExpMin= 7.01D-02 ExpMax= 4.48D+04 ExpMxC= 1.53D+03 IAcc=3 IRadAn=         5 AccDes= 0.00D+00
 Harris functional with IExCor= 4639 and IRadAn=       5 diagonalized for initial guess.
 HarFok:  IExCor= 4639 AccDes= 0.00D+00 IRadAn=         5 IDoV= 1 UseB2=F ITyADJ=14
 ICtDFT=  3500011 ScaDFX=  1.000000  1.000000  1.000000  1.000000
 FoFCou: FMM=F IPFlag=           0 FMFlag=      100000 FMFlg1=           0
         NFxFlg=           0 DoJE=T BraDBF=F KetDBF=T FulRan=T
         wScrn=  0.000000 ICntrl=       500 IOpCl=  0 I1Cent=   200000004 NGrid=           0
         NMat0=    1 NMatS0=      1 NMatT0=    0 NMatD0=    1 NMtDS0=    0 NMtDT0=    0
 Symmetry not used in FoFCou.
 Requested convergence on RMS density matrix=1.00D-08 within 128 cycles.
 Requested convergence on MAX density matrix=1.00D-06.
 Requested convergence on             energy=1.00D-06.
 No special actions if energy rises.
 Integral accuracy reduced to 1.0D-05 until final iterations.
 Initial convergence to 1.0D-05 achieved.  Increase integral accuracy.
 SCF Done:  E(RwB97XD) =  -823.262053880     A.U. after   10 cycles
            NFock= 10  Conv=0.38D-08     -V/T= 2.0034
 DoSCS=F DFT=T ScalE2(SS,OS)=  1.000000  1.000000
 Range of M.O.s used for correlation:     1   430
 NBasis=   430 NAE=    42 NBE=    42 NFC=     0 NFV=     0
 NROrb=    430 NOA=    42 NOB=    42 NVA=   388 NVB=   388

 **** Warning!!: The largest alpha MO coefficient is  0.13655584D+02

 Symmetrizing basis deriv contribution to polar:
 IMax=3 JMax=2 DiffMx= 0.00D+00
   1 Symmetry operations used in ECPInt.
 ECPInt:  NShTT=   13203 NPrTT=   36019 LenC2=   12505 LenP2D=   26748.
 LDataN:  DoStor=T MaxTD1= 7 Len=  274
 Calling FoFJK, ICntrl=      2127 FMM=F ISym2X=0 I1Cent= 0 IOpClX= 0 NMat=1 NMatS=1 NMatT=0.
 -------------------------------------------------------------------
 Center     Atomic                   Forces (Hartrees/Bohr)
 Number     Number              X              Y              Z
 -------------------------------------------------------------------
      1        6          -0.000204898    0.000002763    0.000025472
      2        1           0.000026184    0.000058984    0.000025783
      3        1           0.000004135   -0.000060627   -0.000016090
      4        6          -0.001657936    0.000013892    0.000459512
      5        1           0.000039033    0.000000001    0.000004085
      6        1          -0.000059482    0.000003833    0.000010500
      7        8          -0.000039710    0.000000253    0.000100856
      8        1           0.000033967   -0.000021255   -0.000012499
      9        8           0.000925424   -0.000183594   -0.000345612
     10        1           0.000091716    0.000005661   -0.000028941
     11       14          -0.000082959    0.000248190   -0.000291787
     12        8           0.000023244   -0.000127426    0.000127033
     13        1          -0.000016274    0.000003420   -0.000013060
     14        8          -0.000118317   -0.000018386   -0.000120935
     15        1           0.000016882    0.000018325   -0.000000568
     16        8           0.000823672    0.000152496   -0.000106848
     17        1           0.000102260   -0.000007220   -0.000034366
     18        8           0.000066298   -0.000056750    0.000210888
     19        1           0.000026761   -0.000032560    0.000006577
 -------------------------------------------------------------------
 Cartesian Forces:  Max     0.001657936 RMS     0.000297485
 IRC-IRC-IRC-IRC-IRC-IRC-IRC-IRC-IRC-IRC-IRC-IRC-IRC-IRC-IRC-IRC-IRC-IRC
 Pt  2 Step number   1 out of a maximum of 100
 Modified Bulirsch-Stoer Extrapolation Cycles:
    EPS =    0.000010000000000
      PEZero:  N= 2 I= 1 D=  2.55D-04 Err=  2.66D-06
 Maximum DWI energy   std dev =  0.000000012 at pt    16
 Maximum DWI gradient std dev =  0.020360797 at pt    27
 CORRECTOR INTEGRATION CONVERGENCE:
   Recorrection delta-x convergence threshold:    0.010000
   Delta-x Convergence Met
 Point Number:   2          Path Number:   1
   CHANGE IN THE REACTION COORDINATE =    0.04900
   NET REACTION COORDINATE UP TO THIS POINT =    0.09800
  # OF POINTS ALONG THE PATH =   2
  # OF STEPS =   1

 Calculating another point on the path.
 IRC-IRC-IRC-IRC-IRC-IRC-IRC-IRC-IRC-IRC-IRC-IRC-IRC-IRC-IRC-IRC-IRC-IRC
                          Input orientation:                          
 ---------------------------------------------------------------------
 Center     Atomic      Atomic             Coordinates (Angstroms)
 Number     Number       Type             X           Y           Z
 ---------------------------------------------------------------------
      1          6           0        1.647487    0.679974    0.788279
      2          1           0        0.765813    1.039140    1.324774
      3          1           0        2.510208    0.844339    1.436129
      4          6           0        1.495719   -0.794338    0.540502
      5          1           0        1.119341   -1.107569   -0.415549
      6          1           0        1.742623   -1.522104    1.297419
      7          8           0        1.851451    1.335678   -0.427724
      8          1           0        3.100883    0.079698   -0.723166
      9          8           0        3.339147   -0.787993   -0.319658
     10          1           0        3.389514   -1.420213   -1.038520
     11         14           0       -1.391606    0.009111   -0.157351
     12          8           0       -2.053987    1.235353    0.710538
     13          1           0       -2.779830    1.012170    1.287864
     14          8           0       -0.382531    0.466725   -1.245816
     15          1           0        0.978507    1.164972   -0.923424
     16          8           0       -0.554513   -0.940213    1.036051
     17          1           0       -0.876444   -1.841437    1.065704
     18          8           0       -2.574998   -1.062232   -0.588033
     19          1           0       -2.787245   -1.065325   -1.518428
 ---------------------------------------------------------------------
                    Distance matrix (angstroms):
                    1          2          3          4          5
     1  C    0.000000
     2  H    1.092784   0.000000
     3  H    1.091336   1.758767   0.000000
     4  C    1.502672   2.123555   2.125229   0.000000
     5  H    2.218884   2.786048   3.028724   1.074155   0.000000
     6  H    2.262172   2.741327   2.491682   1.078669   1.869379
     7  O    1.396500   2.082737   2.036989   2.366639   2.550606
     8  H    2.181091   3.250714   2.365614   2.222014   2.330394
     9  O    2.498833   3.558738   2.536619   2.034242   2.244741
    10  H    3.283692   4.303183   3.467746   2.543912   2.374768
    11  Si   3.252746   2.812847   4.296619   3.077202   2.760162
    12  O    3.743714   2.892586   4.638022   4.092551   4.102117
    13  H    4.467782   3.545938   5.294776   4.701313   4.753782
    14  O    2.881664   2.873027   3.962747   2.882540   2.328812
    15  H    1.900706   2.261740   2.831326   2.499897   2.332855
    16  O    2.745032   2.396760   3.568922   2.114308   2.221921
    17  H    3.578367   3.325936   4.338205   2.645640   2.591492
    18  O    4.770629   4.385843   5.795824   4.232741   3.698641
    19  H    5.294697   5.013661   6.359186   4.759875   4.059500
                    6          7          8          9         10
     6  H    0.000000
     7  O    3.339892   0.000000
     8  H    2.914344   1.796066   0.000000
     9  O    2.388042   2.595168   0.986142   0.000000
    10  H    2.859938   3.214598   1.559643   0.958645   0.000000
    11  Si   3.779466   3.514300   4.528530   4.800181   5.067399
    12  O    4.728873   4.069171   5.473914   5.851592   6.304200
    13  H    5.184131   4.949411   6.284627   6.577735   7.027756
    14  O    3.865199   2.532792   3.543604   4.035217   4.222775
    15  H    3.568808   1.018278   2.392154   3.122695   3.536860
    16  O    2.384060   3.620909   4.182939   4.125736   4.482141
    17  H    2.648618   4.445875   4.765495   4.560722   4.775310
    18  O    4.733737   5.036778   5.791191   5.926580   5.992203
    19  H    5.353256   5.335912   6.050915   6.248732   6.205531
                   11         12         13         14         15
    11  Si   0.000000
    12  O    1.641844   0.000000
    13  H    2.240968   0.953920   0.000000
    14  O    1.553190   2.685494   3.530451   0.000000
    15  H    2.745964   3.445404   4.363284   1.563301   0.000000
    16  O    1.739583   2.662230   2.971069   2.686256   3.259064
    17  H    2.277231   3.313516   3.437340   3.303739   4.054130
    18  O    1.653385   2.690100   2.804298   2.752690   4.207176
    19  H    2.225928   3.286195   3.491606   2.864288   4.416916
                   16         17         18         19
    16  O    0.000000
    17  H    0.957457   0.000000
    18  O    2.595169   2.495414   0.000000
    19  H    3.395013   3.306244   0.954303   0.000000
 Symmetry turned off by external request.
 Stoichiometry    C2H10O6Si
 Framework group  C1[X(C2H10O6Si)]
 Deg. of freedom    51
 Full point group                 C1      NOp   1
 Rotational constants (GHZ):           2.3930712           0.7628612           0.7182412
 Standard basis: def2TZVPP (5D, 7F)
   430 basis functions,   647 primitive gaussians,   486 cartesian basis functions
    42 alpha electrons       42 beta electrons
       nuclear repulsion energy       641.4696331888 Hartrees.
 NAtoms=   19 NActive=   19 NUniq=   19 SFac= 1.00D+00 NAtFMM=   60 NAOKFM=F Big=F
 Integral buffers will be    131072 words long.
 Raffenetti 2 integral format.
 Two-electron integral symmetry is turned off.
 Nuclear repulsion after empirical dispersion term =      641.4590881812 Hartrees.
 One-electron integrals computed using PRISM.
   1 Symmetry operations used in ECPInt.
 ECPInt:  NShTT=   13203 NPrTT=   36019 LenC2=   12504 LenP2D=   26748.
 LDataN:  DoStor=T MaxTD1= 6 Len=  172
 NBasis=   430 RedAO= T EigKep=  1.68D-04  NBF=   430
 NBsUse=   430 1.00D-06 EigRej= -1.00D+00 NBFU=   430
 Initial guess from the checkpoint file:  "IRCSiAttack_100step_maxcycles100_ForwardOnly.chk"
 B after Tr=     0.000112   -0.000022   -0.000035
         Rot=    1.000000    0.000002   -0.000003   -0.000008 Ang=   0.00 deg.
 ExpMin= 7.01D-02 ExpMax= 4.48D+04 ExpMxC= 1.53D+03 IAcc=3 IRadAn=         5 AccDes= 0.00D+00
 Harris functional with IExCor= 4639 and IRadAn=       5 diagonalized for initial guess.
 HarFok:  IExCor= 4639 AccDes= 0.00D+00 IRadAn=         5 IDoV= 1 UseB2=F ITyADJ=14
 ICtDFT=  3500011 ScaDFX=  1.000000  1.000000  1.000000  1.000000
 FoFCou: FMM=F IPFlag=           0 FMFlag=      100000 FMFlg1=           0
         NFxFlg=           0 DoJE=T BraDBF=F KetDBF=T FulRan=T
         wScrn=  0.000000 ICntrl=       500 IOpCl=  0 I1Cent=   200000004 NGrid=           0
         NMat0=    1 NMatS0=      1 NMatT0=    0 NMatD0=    1 NMtDS0=    0 NMtDT0=    0
 Symmetry not used in FoFCou.
 Requested convergence on RMS density matrix=1.00D-08 within 128 cycles.
 Requested convergence on MAX density matrix=1.00D-06.
 Requested convergence on             energy=1.00D-06.
 No special actions if energy rises.
 Integral accuracy reduced to 1.0D-05 until final iterations.
 Initial convergence to 1.0D-05 achieved.  Increase integral accuracy.
 SCF Done:  E(RwB97XD) =  -823.262093399     A.U. after   10 cycles
            NFock= 10  Conv=0.37D-08     -V/T= 2.0034
 DoSCS=F DFT=T ScalE2(SS,OS)=  1.000000  1.000000
 Range of M.O.s used for correlation:     1   430
 NBasis=   430 NAE=    42 NBE=    42 NFC=     0 NFV=     0
 NROrb=    430 NOA=    42 NOB=    42 NVA=   388 NVB=   388

 **** Warning!!: The largest alpha MO coefficient is  0.13819386D+02

 Symmetrizing basis deriv contribution to polar:
 IMax=3 JMax=2 DiffMx= 0.00D+00
   1 Symmetry operations used in ECPInt.
 ECPInt:  NShTT=   13203 NPrTT=   36019 LenC2=   12504 LenP2D=   26748.
 LDataN:  DoStor=T MaxTD1= 7 Len=  274
 Calling FoFJK, ICntrl=      2127 FMM=F ISym2X=0 I1Cent= 0 IOpClX= 0 NMat=1 NMatS=1 NMatT=0.
 -------------------------------------------------------------------
 Center     Atomic                   Forces (Hartrees/Bohr)
 Number     Number              X              Y              Z
 -------------------------------------------------------------------
      1        6          -0.000307136   -0.000009823    0.000045738
      2        1           0.000036972    0.000093714    0.000037605
      3        1           0.000007648   -0.000087097   -0.000028197
      4        6          -0.002531481    0.000017586    0.000709378
      5        1           0.000057023   -0.000004998   -0.000005518
      6        1          -0.000087602    0.000007517    0.000018732
      7        8          -0.000052865   -0.000005133    0.000172801
      8        1           0.000051085   -0.000034431   -0.000020296
      9        8           0.001399962   -0.000273987   -0.000526439
     10        1           0.000138969    0.000010025   -0.000045371
     11       14          -0.000123419    0.000386352   -0.000442093
     12        8           0.000036863   -0.000189272    0.000192423
     13        1          -0.000025592    0.000004705   -0.000019048
     14        8          -0.000177377   -0.000023292   -0.000181393
     15        1           0.000022725    0.000025709   -0.000004707
     16        8           0.001255397    0.000224514   -0.000171714
     17        1           0.000158545   -0.000012284   -0.000049529
     18        8           0.000103008   -0.000077919    0.000304531
     19        1           0.000037275   -0.000051885    0.000013095
 -------------------------------------------------------------------
 Cartesian Forces:  Max     0.002531481 RMS     0.000453233
 IRC-IRC-IRC-IRC-IRC-IRC-IRC-IRC-IRC-IRC-IRC-IRC-IRC-IRC-IRC-IRC-IRC-IRC
 Pt  3 Step number   1 out of a maximum of 100
 Modified Bulirsch-Stoer Extrapolation Cycles:
    EPS =    0.000010000000000
      PEZero:  N= 2 I= 1 D=  2.55D-04 Err=  9.29D-07
 Maximum DWI energy   std dev =  0.000000035 at pt    48
 Maximum DWI gradient std dev =  0.012306278 at pt    28
 CORRECTOR INTEGRATION CONVERGENCE:
   Recorrection delta-x convergence threshold:    0.010000
   Delta-x Convergence Met
 Point Number:   3          Path Number:   1
   CHANGE IN THE REACTION COORDINATE =    0.04900
   NET REACTION COORDINATE UP TO THIS POINT =    0.14700
  # OF POINTS ALONG THE PATH =   3
  # OF STEPS =   1

 Calculating another point on the path.
 IRC-IRC-IRC-IRC-IRC-IRC-IRC-IRC-IRC-IRC-IRC-IRC-IRC-IRC-IRC-IRC-IRC-IRC
                          Input orientation:                          
 ---------------------------------------------------------------------
 Center     Atomic      Atomic             Coordinates (Angstroms)
 Number     Number       Type             X           Y           Z
 ---------------------------------------------------------------------
      1          6           0        1.646806    0.679944    0.788370
      2          1           0        0.766669    1.041682    1.325842
      3          1           0        2.510494    0.842035    1.435457
      4          6           0        1.490136   -0.794278    0.542130
      5          1           0        1.120531   -1.107935   -0.416349
      6          1           0        1.740307   -1.521999    1.298014
      7          8           0        1.851365    1.335662   -0.427435
      8          1           0        3.102260    0.078620   -0.723633
      9          8           0        3.341462   -0.788430   -0.320537
     10          1           0        3.393181   -1.419969   -1.039776
     11         14           0       -1.391722    0.009479   -0.157771
     12          8           0       -2.053924    1.235041    0.710856
     13          1           0       -2.780533    1.012291    1.287386
     14          8           0       -0.382823    0.466689   -1.246114
     15          1           0        0.979131    1.165652   -0.923538
     16          8           0       -0.552418   -0.939834    1.035759
     17          1           0       -0.872298   -1.841912    1.064412
     18          8           0       -2.574826   -1.062358   -0.587530
     19          1           0       -2.786278   -1.066680   -1.518120
 ---------------------------------------------------------------------
                    Distance matrix (angstroms):
                    1          2          3          4          5
     1  C    0.000000
     2  H    1.092873   0.000000
     3  H    1.091307   1.758636   0.000000
     4  C    1.502834   2.123289   2.125249   0.000000
     5  H    2.219194   2.789498   3.027138   1.074090   0.000000
     6  H    2.262086   2.742482   2.490127   1.078668   1.869388
     7  O    1.396421   2.082539   2.036783   2.367950   2.550571
     8  H    2.183137   3.253125   2.365303   2.227790   2.330148
     9  O    2.501530   3.562223   2.536225   2.042458   2.245840
    10  H    3.286575   4.307486   3.467358   2.552546   2.377176
    11  Si   3.252286   2.815174   4.296373   3.072620   2.761683
    12  O    3.742933   2.893326   4.638255   4.087415   4.103327
    13  H    4.467751   3.547532   5.295836   4.696564   4.755667
    14  O    2.881666   2.875223   3.962700   2.880248   2.329812
    15  H    1.900613   2.262790   2.831017   2.500127   2.333760
    16  O    2.742530   2.398029   3.565984   2.106391   2.221628
    17  H    3.575171   3.327112   4.334112   2.636553   2.588966
    18  O    4.769790   4.387888   5.794797   4.227519   3.699601
    19  H    5.293660   5.015650   6.357878   4.754635   4.059404
                    6          7          8          9         10
     6  H    0.000000
     7  O    3.340020   0.000000
     8  H    2.916153   1.797951   0.000000
     9  O    2.391972   2.596841   0.985636   0.000000
    10  H    2.864902   3.216467   1.558958   0.958552   0.000000
    11  Si   3.778141   3.514128   4.529996   4.802727   5.071149
    12  O    4.726755   4.069043   5.475519   5.853921   6.307514
    13  H    5.182734   4.949713   6.286747   6.580793   7.031807
    14  O    3.864602   2.533169   3.545334   4.037613   4.226140
    15  H    3.569055   1.017750   2.393592   3.124525   3.539292
    16  O    2.379975   3.618977   4.182031   4.126108   4.483985
    17  H    2.642465   4.443077   4.762632   4.558913   4.774930
    18  O    4.731482   5.036596   5.792208   5.928642   5.995792
    19  H    5.350505   5.335596   6.051265   6.249867   6.208006
                   11         12         13         14         15
    11  Si   0.000000
    12  O    1.641653   0.000000
    13  H    2.241184   0.953920   0.000000
    14  O    1.552871   2.685643   3.530625   0.000000
    15  H    2.746649   3.446082   4.364261   1.564456   0.000000
    16  O    1.740731   2.662736   2.972979   2.685892   3.258460
    17  H    2.278417   3.314948   3.440574   3.302689   4.052799
    18  O    1.653258   2.689830   2.803888   2.752562   4.208033
    19  H    2.225636   3.286731   3.491850   2.863880   4.417594
                   16         17         18         19
    16  O    0.000000
    17  H    0.957543   0.000000
    18  O    2.596193   2.497042   0.000000
    19  H    3.395368   3.306627   0.954321   0.000000
 Symmetry turned off by external request.
 Stoichiometry    C2H10O6Si
 Framework group  C1[X(C2H10O6Si)]
 Deg. of freedom    51
 Full point group                 C1      NOp   1
 Rotational constants (GHZ):           2.3927272           0.7628264           0.7182504
 Standard basis: def2TZVPP (5D, 7F)
   430 basis functions,   647 primitive gaussians,   486 cartesian basis functions
    42 alpha electrons       42 beta electrons
       nuclear repulsion energy       641.4501683969 Hartrees.
 NAtoms=   19 NActive=   19 NUniq=   19 SFac= 1.00D+00 NAtFMM=   60 NAOKFM=F Big=F
 Integral buffers will be    131072 words long.
 Raffenetti 2 integral format.
 Two-electron integral symmetry is turned off.
 Nuclear repulsion after empirical dispersion term =      641.4396219114 Hartrees.
 One-electron integrals computed using PRISM.
   1 Symmetry operations used in ECPInt.
 ECPInt:  NShTT=   13203 NPrTT=   36019 LenC2=   12504 LenP2D=   26748.
 LDataN:  DoStor=T MaxTD1= 6 Len=  172
 NBasis=   430 RedAO= T EigKep=  1.68D-04  NBF=   430
 NBsUse=   430 1.00D-06 EigRej= -1.00D+00 NBFU=   430
 Initial guess from the checkpoint file:  "IRCSiAttack_100step_maxcycles100_ForwardOnly.chk"
 B after Tr=     0.000112   -0.000022   -0.000034
         Rot=    1.000000   -0.000001   -0.000002   -0.000007 Ang=  -0.00 deg.
 ExpMin= 7.01D-02 ExpMax= 4.48D+04 ExpMxC= 1.53D+03 IAcc=3 IRadAn=         5 AccDes= 0.00D+00
 Harris functional with IExCor= 4639 and IRadAn=       5 diagonalized for initial guess.
 HarFok:  IExCor= 4639 AccDes= 0.00D+00 IRadAn=         5 IDoV= 1 UseB2=F ITyADJ=14
 ICtDFT=  3500011 ScaDFX=  1.000000  1.000000  1.000000  1.000000
 FoFCou: FMM=F IPFlag=           0 FMFlag=      100000 FMFlg1=           0
         NFxFlg=           0 DoJE=T BraDBF=F KetDBF=T FulRan=T
         wScrn=  0.000000 ICntrl=       500 IOpCl=  0 I1Cent=   200000004 NGrid=           0
         NMat0=    1 NMatS0=      1 NMatT0=    0 NMatD0=    1 NMtDS0=    0 NMtDT0=    0
 Symmetry not used in FoFCou.
 Requested convergence on RMS density matrix=1.00D-08 within 128 cycles.
 Requested convergence on MAX density matrix=1.00D-06.
 Requested convergence on             energy=1.00D-06.
 No special actions if energy rises.
 Integral accuracy reduced to 1.0D-05 until final iterations.
 Initial convergence to 1.0D-05 achieved.  Increase integral accuracy.
 SCF Done:  E(RwB97XD) =  -823.262149791     A.U. after   10 cycles
            NFock= 10  Conv=0.37D-08     -V/T= 2.0034
 DoSCS=F DFT=T ScalE2(SS,OS)=  1.000000  1.000000
 Range of M.O.s used for correlation:     1   430
 NBasis=   430 NAE=    42 NBE=    42 NFC=     0 NFV=     0
 NROrb=    430 NOA=    42 NOB=    42 NVA=   388 NVB=   388

 **** Warning!!: The largest alpha MO coefficient is  0.13992772D+02

 Symmetrizing basis deriv contribution to polar:
 IMax=3 JMax=2 DiffMx= 0.00D+00
   1 Symmetry operations used in ECPInt.
 ECPInt:  NShTT=   13203 NPrTT=   36019 LenC2=   12504 LenP2D=   26748.
 LDataN:  DoStor=T MaxTD1= 7 Len=  274
 Calling FoFJK, ICntrl=      2127 FMM=F ISym2X=0 I1Cent= 0 IOpClX= 0 NMat=1 NMatS=1 NMatT=0.
 -------------------------------------------------------------------
 Center     Atomic                   Forces (Hartrees/Bohr)
 Number     Number              X              Y              Z
 -------------------------------------------------------------------
      1        6          -0.000416341   -0.000018909    0.000063821
      2        1           0.000048170    0.000127497    0.000051510
      3        1           0.000011487   -0.000118289   -0.000036858
      4        6          -0.003450444    0.000021990    0.000982772
      5        1           0.000076265   -0.000011027   -0.000014553
      6        1          -0.000117853    0.000009417    0.000026739
      7        8          -0.000067316   -0.000015156    0.000236756
      8        1           0.000068262   -0.000049008   -0.000026280
      9        8           0.001891134   -0.000360493   -0.000720095
     10        1           0.000187952    0.000014152   -0.000062642
     11       14          -0.000168142    0.000528172   -0.000602282
     12        8           0.000050699   -0.000254558    0.000258892
     13        1          -0.000034883    0.000006598   -0.000025281
     14        8          -0.000236313   -0.000028352   -0.000241287
     15        1           0.000031568    0.000034388   -0.000005960
     16        8           0.001721933    0.000302076   -0.000241357
     17        1           0.000214006   -0.000019160   -0.000066443
     18        8           0.000139971   -0.000100454    0.000404611
     19        1           0.000049845   -0.000068884    0.000017935
 -------------------------------------------------------------------
 Cartesian Forces:  Max     0.003450444 RMS     0.000617430
 IRC-IRC-IRC-IRC-IRC-IRC-IRC-IRC-IRC-IRC-IRC-IRC-IRC-IRC-IRC-IRC-IRC-IRC
 Pt  4 Step number   1 out of a maximum of 100
 Modified Bulirsch-Stoer Extrapolation Cycles:
    EPS =    0.000010000000000
      PEZero:  N= 2 I= 1 D=  2.55D-04 Err=  9.83D-07
 Maximum DWI energy   std dev =  0.000000050 at pt    47
 Maximum DWI gradient std dev =  0.009018695 at pt    38
 CORRECTOR INTEGRATION CONVERGENCE:
   Recorrection delta-x convergence threshold:    0.010000
   Delta-x Convergence Met
 Point Number:   4          Path Number:   1
   CHANGE IN THE REACTION COORDINATE =    0.04900
   NET REACTION COORDINATE UP TO THIS POINT =    0.19600
  # OF POINTS ALONG THE PATH =   4
  # OF STEPS =   1

 Calculating another point on the path.
 IRC-IRC-IRC-IRC-IRC-IRC-IRC-IRC-IRC-IRC-IRC-IRC-IRC-IRC-IRC-IRC-IRC-IRC
                          Input orientation:                          
 ---------------------------------------------------------------------
 Center     Atomic      Atomic             Coordinates (Angstroms)
 Number     Number       Type             X           Y           Z
 ---------------------------------------------------------------------
      1          6           0        1.646128    0.679907    0.788466
      2          1           0        0.767519    1.044204    1.326891
      3          1           0        2.510769    0.839738    1.434791
      4          6           0        1.484543   -0.794227    0.543772
      5          1           0        1.121776   -1.108323   -0.417104
      6          1           0        1.738027   -1.521884    1.298615
      7          8           0        1.851285    1.335638   -0.427146
      8          1           0        3.103593    0.077562   -0.724095
      9          8           0        3.343759   -0.788854   -0.321419
     10          1           0        3.396819   -1.419710   -1.041034
     11         14           0       -1.391839    0.009848   -0.158192
     12          8           0       -2.053861    1.234732    0.711170
     13          1           0       -2.781225    1.012418    1.286915
     14          8           0       -0.383108    0.466656   -1.246404
     15          1           0        0.979755    1.166318   -0.923650
     16          8           0       -0.550307   -0.939464    1.035460
     17          1           0       -0.868178   -1.842375    1.063144
     18          8           0       -2.574655   -1.062477   -0.587038
     19          1           0       -2.785329   -1.068002   -1.517816
 ---------------------------------------------------------------------
                    Distance matrix (angstroms):
                    1          2          3          4          5
     1  C    0.000000
     2  H    1.092962   0.000000
     3  H    1.091277   1.758513   0.000000
     4  C    1.503016   2.123023   2.125300   0.000000
     5  H    2.219485   2.792918   3.025518   1.074029   0.000000
     6  H    2.261986   2.743628   2.488561   1.078670   1.869355
     7  O    1.396347   2.082337   2.036577   2.369284   2.550535
     8  H    2.185146   3.255484   2.364982   2.233568   2.329842
     9  O    2.504207   3.565675   2.535835   2.050675   2.246870
    10  H    3.289435   4.311747   3.466973   2.561179   2.379510
    11  Si   3.251828   2.817480   4.296122   3.068039   2.763260
    12  O    3.742155   2.894063   4.638480   4.082278   4.104580
    13  H    4.467714   3.549112   5.296875   4.691802   4.757588
    14  O    2.881662   2.877386   3.962641   2.877964   2.330875
    15  H    1.900523   2.263821   2.830707   2.500374   2.334684
    16  O    2.740018   2.399279   3.563035   2.098444   2.221332
    17  H    3.571987   3.328274   4.330028   2.627482   2.586481
    18  O    4.768955   4.389916   5.793769   4.222295   3.700619
    19  H    5.292631   5.017619   6.356573   4.749411   4.059392
                    6          7          8          9         10
     6  H    0.000000
     7  O    3.340137   0.000000
     8  H    2.917937   1.799780   0.000000
     9  O    2.395875   2.598485   0.985142   0.000000
    10  H    2.869842   3.218303   1.558286   0.958458   0.000000
    11  Si   3.776844   3.513959   4.531417   4.805253   5.074869
    12  O    4.724663   4.068920   5.477075   5.856231   6.310800
    13  H    5.181358   4.950013   6.288815   6.583825   7.035824
    14  O    3.864018   2.533540   3.547011   4.039980   4.229468
    15  H    3.569295   1.017226   2.394973   3.126323   3.541683
    16  O    2.375908   3.617036   4.181072   4.126446   4.485785
[...]
     12          8           0       -2.052462    1.190651    0.766705
     13          1           0       -2.884295    1.005220    1.195247
     14          8           0       -0.430735    0.484845   -1.317678
     15          1           0        1.034443    1.168934   -0.932637
     16          8           0       -0.369872   -0.888120    0.975221
     17          1           0       -0.637220   -1.809423    1.026854
     18          8           0       -2.553315   -1.079279   -0.509290
     19          1           0       -2.608451   -1.356812   -1.422797
 ---------------------------------------------------------------------
                    Distance matrix (angstroms):
                    1          2          3          4          5
     1  C    0.000000
     2  H    1.096739   0.000000
     3  H    1.088701   1.760698   0.000000
     4  C    1.534013   2.149859   2.137022   0.000000
     5  H    2.175443   2.967773   2.797403   1.083590   0.000000
     6  H    2.187406   2.765969   2.298185   1.086250   1.784844
     7  O    1.401752   2.073272   2.012188   2.464832   2.524977
     8  H    2.337551   3.406333   2.359278   2.640963   2.275875
     9  O    2.792262   3.886919   2.618005   2.701586   2.312724
    10  H    3.647235   4.741610   3.561238   3.410728   2.770912
    11  Si   3.213654   2.977836   4.268257   2.814894   2.957084
    12  O    3.646135   2.917387   4.598314   3.717342   4.205990
    13  H    4.466515   3.691671   5.368043   4.390272   4.914091
    14  O    2.936142   3.070653   3.998763   2.837293   2.580707
    15  H    1.912921   2.344766   2.807526   2.557143   2.436350
    16  O    2.476931   2.447654   3.271760   1.488848   2.086516
    17  H    3.311037   3.373674   3.997168   2.031303   2.399941
    18  O    4.661935   4.489211   5.661620   3.853527   3.823483
    19  H    5.150767   5.118723   6.167546   4.306920   4.037245
                    6          7          8          9         10
     6  H    0.000000
     7  O    3.292074   0.000000
     8  H    3.058479   1.867387   0.000000
     9  O    2.790785   2.716575   0.970987   0.000000
    10  H    3.521272   3.365509   1.538221   0.953832   0.000000
    11  Si   3.734184   3.489043   4.611873   5.053211   5.553708
    12  O    4.516957   4.069078   5.554545   6.072144   6.717746
    13  H    5.075752   4.997992   6.424845   6.881869   7.528353
    14  O    3.910599   2.589391   3.677002   4.288157   4.658289
    15  H    3.567138   0.988159   2.438512   3.256516   3.760403
    16  O    2.059748   3.389750   4.021228   4.157814   4.788192
    17  H    2.266856   4.212097   4.560661   4.532643   5.063086
    18  O    4.567797   4.997921   5.823992   6.106869   6.473500
    19  H    5.060600   5.283701   5.972995   6.259949   6.493801
                   11         12         13         14         15
    11  Si   0.000000
    12  O    1.623727   0.000000
    13  H    2.244138   0.953929   0.000000
    14  O    1.529315   2.733644   3.550428   0.000000
    15  H    2.778806   3.523806   4.462196   1.662221   0.000000
    16  O    1.862013   2.682513   3.155229   2.673223   3.137433
    17  H    2.392328   3.327316   3.605540   3.286812   3.937596
    18  O    1.641109   2.651717   2.712956   2.757775   4.255078
    19  H    2.211286   3.404793   3.536868   2.853980   4.459857
                   16         17         18         19
    16  O    0.000000
    17  H    0.960698   0.000000
    18  O    2.647214   2.562084   0.000000
    19  H    3.313820   3.176697   0.956326   0.000000
 Symmetry turned off by external request.
 Stoichiometry    C2H10O6Si
 Framework group  C1[X(C2H10O6Si)]
 Deg. of freedom    51
 Full point group                 C1      NOp   1
 Rotational constants (GHZ):           2.3634715           0.7469748           0.7136035

 **********************************************************************

            Population analysis using the SCF Density.

 **********************************************************************

 Alpha  occ. eigenvalues --  -66.29827 -19.35850 -19.26767 -19.25795 -19.22987
 Alpha  occ. eigenvalues --  -19.22907 -19.16751 -10.36555 -10.33641  -5.41776
 Alpha  occ. eigenvalues --   -3.76515  -3.76230  -3.75960  -1.22425  -1.13299
 Alpha  occ. eigenvalues --   -1.11758  -1.11004  -1.09409  -0.99394  -0.86860
 Alpha  occ. eigenvalues --   -0.74179  -0.70563  -0.66386  -0.62599  -0.62199
 Alpha  occ. eigenvalues --   -0.60415  -0.59178  -0.56537  -0.52714  -0.50388
 Alpha  occ. eigenvalues --   -0.50111  -0.47985  -0.46891  -0.45901  -0.44451
 Alpha  occ. eigenvalues --   -0.43726  -0.42533  -0.40471  -0.38803  -0.36213
 Alpha  occ. eigenvalues --   -0.35499  -0.35174
 Alpha virt. eigenvalues --    0.06032   0.10475   0.11495   0.12638   0.14848
 Alpha virt. eigenvalues --    0.15811   0.16731   0.17492   0.17805   0.19388
 Alpha virt. eigenvalues --    0.21102   0.21952   0.25029   0.25532   0.26230
 Alpha virt. eigenvalues --    0.27736   0.28686   0.30496   0.30703   0.32159
 Alpha virt. eigenvalues --    0.32361   0.34717   0.37997   0.39166   0.40189
 Alpha virt. eigenvalues --    0.43182   0.43551   0.43995   0.45028   0.45572
 Alpha virt. eigenvalues --    0.46262   0.47251   0.47602   0.49673   0.50017
 Alpha virt. eigenvalues --    0.50688   0.51214   0.51572   0.52582   0.52827
 Alpha virt. eigenvalues --    0.54119   0.54320   0.57133   0.57725   0.58871
 Alpha virt. eigenvalues --    0.59623   0.60730   0.61151   0.61967   0.62914
 Alpha virt. eigenvalues --    0.64578   0.65508   0.66432   0.68663   0.69194
 Alpha virt. eigenvalues --    0.70249   0.73999   0.75323   0.75937   0.77233
 Alpha virt. eigenvalues --    0.79001   0.80319   0.81635   0.82565   0.84466
 Alpha virt. eigenvalues --    0.85977   0.88088   0.89410   0.90313   0.91036
 Alpha virt. eigenvalues --    0.92346   0.94515   0.95374   0.96746   0.98671
 Alpha virt. eigenvalues --    0.99398   1.01076   1.01217   1.03006   1.03520
 Alpha virt. eigenvalues --    1.04577   1.07138   1.08756   1.10260   1.12722
 Alpha virt. eigenvalues --    1.13422   1.14302   1.15817   1.17550   1.19202
 Alpha virt. eigenvalues --    1.20793   1.22117   1.23041   1.25435   1.25797
 Alpha virt. eigenvalues --    1.27738   1.28872   1.30353   1.31626   1.33052
 Alpha virt. eigenvalues --    1.33917   1.35772   1.37638   1.38226   1.40705
 Alpha virt. eigenvalues --    1.42233   1.43311   1.44882   1.46361   1.47151
 Alpha virt. eigenvalues --    1.48756   1.51841   1.54343   1.56448   1.56777
 Alpha virt. eigenvalues --    1.58470   1.59316   1.61833   1.64006   1.65455
 Alpha virt. eigenvalues --    1.68848   1.71052   1.74265   1.76233   1.79812
 Alpha virt. eigenvalues --    1.82546   1.84094   1.86471   1.87791   1.88494
 Alpha virt. eigenvalues --    1.90949   1.92540   1.93269   1.94767   1.96387
 Alpha virt. eigenvalues --    2.00437   2.01269   2.02609   2.03546   2.04637
 Alpha virt. eigenvalues --    2.05616   2.06806   2.08879   2.11246   2.13618
 Alpha virt. eigenvalues --    2.15512   2.19185   2.19973   2.22449   2.24037
 Alpha virt. eigenvalues --    2.25837   2.26599   2.29425   2.31523   2.34163
 Alpha virt. eigenvalues --    2.35472   2.38099   2.42041   2.47948   2.48270
 Alpha virt. eigenvalues --    2.50258   2.51977   2.54888   2.58725   2.64257
 Alpha virt. eigenvalues --    2.66441   2.70855   2.72360   2.73863   2.75683
 Alpha virt. eigenvalues --    2.78990   2.80361   2.82246   2.85605   2.85904
 Alpha virt. eigenvalues --    2.87308   2.91719   2.92889   2.95392   2.96885
 Alpha virt. eigenvalues --    2.98412   3.00394   3.03879   3.05699   3.06819
 Alpha virt. eigenvalues --    3.09184   3.10272   3.11784   3.13332   3.15215
 Alpha virt. eigenvalues --    3.16924   3.17072   3.18869   3.22707   3.23904
 Alpha virt. eigenvalues --    3.28244   3.28975   3.31445   3.32033   3.33837
 Alpha virt. eigenvalues --    3.34911   3.35748   3.37139   3.37551   3.38409
 Alpha virt. eigenvalues --    3.40446   3.41941   3.42956   3.43834   3.45730
 Alpha virt. eigenvalues --    3.45843   3.47827   3.50264   3.52891   3.53198
 Alpha virt. eigenvalues --    3.55309   3.56713   3.58889   3.61790   3.62359
 Alpha virt. eigenvalues --    3.66380   3.67497   3.72150   3.72324   3.73589
 Alpha virt. eigenvalues --    3.74356   3.74860   3.77574   3.78019   3.80344
 Alpha virt. eigenvalues --    3.82328   3.85800   3.87036   3.89240   3.91733
 Alpha virt. eigenvalues --    3.91917   3.93184   3.94426   3.95599   3.98070
 Alpha virt. eigenvalues --    3.99190   4.03435   4.04522   4.08733   4.10228
 Alpha virt. eigenvalues --    4.10984   4.12017   4.12503   4.14099   4.14963
 Alpha virt. eigenvalues --    4.16239   4.16997   4.19314   4.21321   4.21940
 Alpha virt. eigenvalues --    4.23279   4.25376   4.26016   4.29550   4.30592
 Alpha virt. eigenvalues --    4.32038   4.35195   4.36756   4.36793   4.37306
 Alpha virt. eigenvalues --    4.40306   4.44600   4.46234   4.48473   4.53043
 Alpha virt. eigenvalues --    4.58913   4.61641   4.63523   4.65348   4.70884
 Alpha virt. eigenvalues --    4.74726   4.75493   4.76785   4.79204   4.82349
 Alpha virt. eigenvalues --    4.85968   4.89685   4.90804   4.92849   4.95098
 Alpha virt. eigenvalues --    4.96483   4.98091   5.00343   5.01973   5.03827
 Alpha virt. eigenvalues --    5.06250   5.09153   5.11815   5.17068   5.17812
 Alpha virt. eigenvalues --    5.20152   5.25943   5.26840   5.32271   5.34088
 Alpha virt. eigenvalues --    5.35709   5.37347   5.39414   5.40740   5.41412
 Alpha virt. eigenvalues --    5.43755   5.45285   5.48166   5.50865   5.51865
 Alpha virt. eigenvalues --    5.55391   5.58175   5.61550   5.65643   5.66746
 Alpha virt. eigenvalues --    5.68178   5.69521   5.73116   5.74224   5.76123
 Alpha virt. eigenvalues --    5.79374   5.86482   5.87857   5.94607   5.95622
 Alpha virt. eigenvalues --    6.07194   6.16101   6.19058   6.24774   6.48189
 Alpha virt. eigenvalues --    6.49658   6.51410   6.53555   6.56237   6.56735
 Alpha virt. eigenvalues --    6.60283   6.61369   6.63151   6.64623   6.65920
 Alpha virt. eigenvalues --    6.66407   6.68282   6.69090   6.69583   6.70127
 Alpha virt. eigenvalues --    6.71400   6.72966   6.75356   6.75798   6.78439
 Alpha virt. eigenvalues --    6.80270   6.83536   6.84362   6.86123   6.88554
 Alpha virt. eigenvalues --    6.90139   6.95346   6.97188   6.99245   7.02459
 Alpha virt. eigenvalues --    7.05586   7.08635   7.11576   7.19078   7.25450
 Alpha virt. eigenvalues --    7.26186   7.31382   7.33193   7.36337   7.45767
 Alpha virt. eigenvalues --    7.51811   7.52934   7.54558   7.57064   7.59740
 Alpha virt. eigenvalues --    7.66569   7.68317   7.75379   7.87592  12.37546
 Alpha virt. eigenvalues --   23.33215  23.49901  43.84690  43.85305  43.89885
 Alpha virt. eigenvalues --   43.94822  44.16362  44.34062
          Condensed to atoms (all electrons):
               1          2          3          4          5          6
     1  C    4.776768   0.400474   0.422339   0.220411  -0.043002  -0.008315
     2  H    0.400474   0.601605  -0.027552  -0.039276   0.003237   0.006383
     3  H    0.422339  -0.027552   0.577390  -0.030497   0.001649  -0.011001
     4  C    0.220411  -0.039276  -0.030497   5.079902   0.414072   0.376665
     5  H   -0.043002   0.003237   0.001649   0.414072   0.508637  -0.011081
     6  H   -0.008315   0.006383  -0.011001   0.376665  -0.011081   0.547429
     7  O    0.237536  -0.028119  -0.035359  -0.054627   0.001103   0.005778
     8  H   -0.021035   0.002141  -0.006604   0.001944  -0.001583   0.000449
     9  O    0.026626   0.000065   0.002595  -0.046316   0.030982   0.003031
    10  H   -0.003517  -0.000084   0.000139  -0.001159   0.002117   0.000022
    11  Si   0.016887  -0.007088   0.000776  -0.019584  -0.007792   0.003813
    12  O   -0.009034   0.006943  -0.000054   0.001816  -0.000117  -0.000038
    13  H    0.000481  -0.000445  -0.000002  -0.000140  -0.000029   0.000006
    14  O    0.006311  -0.005307   0.000033   0.000299   0.006742   0.002160
    15  H   -0.025830  -0.004894   0.005346  -0.005676   0.003355  -0.000345
    16  O   -0.022976  -0.000262   0.002089   0.152676  -0.030765  -0.026373
    17  H    0.005382   0.000314  -0.000371  -0.014686  -0.002891  -0.005723
    18  O   -0.000177   0.000046  -0.000005  -0.002810   0.000281  -0.000217
    19  H   -0.000024  -0.000008  -0.000000   0.000178  -0.000014  -0.000004
               7          8          9         10         11         12
     1  C    0.237536  -0.021035   0.026626  -0.003517   0.016887  -0.009034
     2  H   -0.028119   0.002141   0.000065  -0.000084  -0.007088   0.006943
     3  H   -0.035359  -0.006604   0.002595   0.000139   0.000776  -0.000054
     4  C   -0.054627   0.001944  -0.046316  -0.001159  -0.019584   0.001816
     5  H    0.001103  -0.001583   0.030982   0.002117  -0.007792  -0.000117
     6  H    0.005778   0.000449   0.003031   0.000022   0.003813  -0.000038
     7  O    7.987061   0.054937  -0.034101   0.001793  -0.001982   0.000087
     8  H    0.054937   0.457127   0.308231  -0.012855  -0.000065   0.000001
     9  O   -0.034101   0.308231   7.796467   0.314437  -0.000483   0.000000
    10  H    0.001793  -0.012855   0.314437   0.532446  -0.000053   0.000000
    11  Si  -0.001982  -0.000065  -0.000483  -0.000053  11.562786   0.458427
    12  O    0.000087   0.000001   0.000000   0.000000   0.458427   7.648084
    13  H   -0.000001   0.000000  -0.000000   0.000000  -0.014160   0.323562
    14  O   -0.049144   0.000696  -0.000147  -0.000013   0.652210  -0.022258
    15  H    0.335989  -0.001955   0.000772   0.000277  -0.006252   0.000082
    16  O    0.002943  -0.000449   0.001373  -0.000027   0.215371  -0.029538
    17  H   -0.000375   0.000015   0.000058  -0.000005  -0.010705   0.001224
    18  O   -0.000031  -0.000001   0.000001  -0.000000   0.434043  -0.023542
    19  H    0.000004  -0.000001   0.000001   0.000000  -0.022592   0.000500
              13         14         15         16         17         18
     1  C    0.000481   0.006311  -0.025830  -0.022976   0.005382  -0.000177
     2  H   -0.000445  -0.005307  -0.004894  -0.000262   0.000314   0.000046
     3  H   -0.000002   0.000033   0.005346   0.002089  -0.000371  -0.000005
     4  C   -0.000140   0.000299  -0.005676   0.152676  -0.014686  -0.002810
     5  H   -0.000029   0.006742   0.003355  -0.030765  -0.002891   0.000281
     6  H    0.000006   0.002160  -0.000345  -0.026373  -0.005723  -0.000217
     7  O   -0.000001  -0.049144   0.335989   0.002943  -0.000375  -0.000031
     8  H    0.000000   0.000696  -0.001955  -0.000449   0.000015  -0.000001
     9  O   -0.000000  -0.000147   0.000772   0.001373   0.000058   0.000001
    10  H    0.000000  -0.000013   0.000277  -0.000027  -0.000005  -0.000000
    11  Si  -0.014160   0.652210  -0.006252   0.215371  -0.010705   0.434043
    12  O    0.323562  -0.022258   0.000082  -0.029538   0.001224  -0.023542
    13  H    0.516261   0.000816   0.000009   0.001219  -0.000202  -0.001957
    14  O    0.000816   8.030593   0.072145  -0.028042   0.000006  -0.023935
    15  H    0.000009   0.072145   0.379153   0.001344  -0.000027   0.000026
    16  O    0.001219  -0.028042   0.001344   7.573575   0.324127  -0.027148
    17  H   -0.000202   0.000006  -0.000027   0.324127   0.501690   0.009288
    18  O   -0.001957  -0.023935   0.000026  -0.027148   0.009288   7.736452
    19  H    0.000064  -0.000050  -0.000013   0.000902  -0.000455   0.338074
              19
     1  C   -0.000024
     2  H   -0.000008
     3  H   -0.000000
     4  C    0.000178
     5  H   -0.000014
     6  H   -0.000004
     7  O    0.000004
     8  H   -0.000001
     9  O    0.000001
    10  H    0.000000
    11  Si  -0.022592
    12  O    0.000500
    13  H    0.000064
    14  O   -0.000050
    15  H   -0.000013
    16  O    0.000902
    17  H   -0.000455
    18  O    0.338074
    19  H    0.475823
 Mulliken charges:
               1
     1  C    0.020693
     2  H    0.091827
     3  H    0.099089
     4  C   -0.033190
     5  H    0.125098
     6  H    0.117362
     7  O   -0.423494
     8  H    0.219006
     9  O   -0.403591
    10  H    0.166482
    11  Si   0.746444
    12  O   -0.356144
    13  H    0.174518
    14  O   -0.643116
    15  H    0.246493
    16  O   -0.110039
    17  H    0.193335
    18  O   -0.438388
    19  H    0.207615
 Sum of Mulliken charges =  -0.00000
 Mulliken charges with hydrogens summed into heavy atoms:
               1
     1  C    0.211609
     4  C    0.209270
     7  O   -0.177000
     9  O   -0.018103
    11  Si   0.746444
    12  O   -0.181626
    14  O   -0.643116
    16  O    0.083296
    18  O   -0.230773
 APT charges:
               1
     1  C   -0.613374
     2  H    0.208033
     3  H    0.538191
     4  C   -0.505710
     5  H    0.214604
     6  H    0.524204
     7  O   -0.315719
     8  H   -0.002840
     9  O   -0.722576
    10  H    0.682035
    11  Si   0.491076
    12  O   -0.799490
    13  H    0.749869
    14  O   -0.713695
    15  H    0.165867
    16  O   -0.436890
    17  H    0.580589
    18  O   -0.646750
    19  H    0.602576
 Sum of APT charges =  -0.00000
 APT charges with hydrogens summed into heavy atoms:
               1
     1  C    0.132850
     4  C    0.233097
     7  O   -0.149852
     9  O   -0.043381
    11  Si   0.491076
    12  O   -0.049621
    14  O   -0.713695
    16  O    0.143699
    18  O   -0.044174
 Electronic spatial extent (au):  <R**2>=           1699.7107
 Charge=             -0.0000 electrons
 Dipole moment (field-independent basis, Debye):
    X=             -2.0879    Y=             -4.7474    Z=              2.1835  Tot=              5.6272
 Quadrupole moment (field-independent basis, Debye-Ang):
   XX=            -59.3373   YY=            -58.6418   ZZ=            -56.3560
   XY=             -1.3161   XZ=             -3.1785   YZ=              2.9944
 Traceless Quadrupole moment (field-independent basis, Debye-Ang):
   XX=             -1.2256   YY=             -0.5301   ZZ=              1.7557
   XY=             -1.3161   XZ=             -3.1785   YZ=              2.9944
 Octapole moment (field-independent basis, Debye-Ang**2):
  XXX=            -45.3822  YYY=            -21.1987  ZZZ=             -2.3051  XYY=             -5.7880
  XXY=             -2.0017  XXZ=            -18.1233  XZZ=             -2.4665  YZZ=            -11.0347
  YYZ=             -0.3208  XYZ=              1.7369
 Hexadecapole moment (field-independent basis, Debye-Ang**3):
 XXXX=          -1385.9632 YYYY=           -328.5711 ZZZZ=           -273.6480 XXXY=            -43.0043
 XXXZ=            -94.5291 YYYX=              4.9751 YYYZ=             -5.1850 ZZZX=             -9.9477
 ZZZY=             11.4509 XXYY=           -286.0192 XXZZ=           -191.5028 YYZZ=            -83.2405
 XXYZ=             55.2391 YYXZ=             -3.1056 ZZXY=              4.6444
 N-N= 6.410968078217D+02 E-N=-3.231500436578D+03  KE= 8.205716639605D+02
  Exact polarizability:       0.000       0.000       0.000       0.000       0.000       0.000
 Approx polarizability:      78.155       1.294      73.381      -2.420      -0.067      74.433

 This type of calculation cannot be archived.


 TO BEHOLD HARMS OF OUR OWN HANDS DOING,
 WHERE NONE BESIDE US WROUGHT,
 CAUSES SHARP RUING...

                                         SOPHOCLES
 Job cpu time:       2 days  1 hours  5 minutes 30.5 seconds.
 Elapsed time:       0 days  3 hours  5 minutes 29.5 seconds.
 File lengths (MBytes):  RWF=    288 Int=      0 D2E=      0 Chk=     16 Scr=      1
 Normal termination of Gaussian 16 at Sun Oct 22 22:38:50 2023.
