 Entering Gaussian System, Link 0=/opt/software/gaussian/g16.c01/g16
 Initial command:
 /opt/software/gaussian/g16.c01/l1.exe "/scratch/arhender/23861137/Gau-133964.inp" -scrdir="/scratch/arhender/23861137/"
 Entering Link 1 = /opt/software/gaussian/g16.c01/l1.exe PID=    133965.
  
 Copyright (c) 1988-2019, Gaussian, Inc.  All Rights Reserved.
  
 This is part of the Gaussian(R) 16 program.  It is based on
 the Gaussian(R) 09 system (copyright 2009, Gaussian, Inc.),
 the Gaussian(R) 03 system (copyright 2003, Gaussian, Inc.),
 the Gaussian(R) 98 system (copyright 1998, Gaussian, Inc.),
 the Gaussian(R) 94 system (copyright 1995, Gaussian, Inc.),
 the Gaussian 92(TM) system (copyright 1992, Gaussian, Inc.),
 the Gaussian 90(TM) system (copyright 1990, Gaussian, Inc.),
 the Gaussian 88(TM) system (copyright 1988, Gaussian, Inc.),
 the Gaussian 86(TM) system (copyright 1986, Carnegie Mellon
 University), and the Gaussian 82(TM) system (copyright 1983,
 Carnegie Mellon University). Gaussian is a federally registered
 trademark of Gaussian, Inc.
  
 This software contains proprietary and confidential information,
 including trade secrets, belonging to Gaussian, Inc.
  
 This software is provided under written license and may be
 used, copied, transmitted, or stored only in accord with that
 written license.
  
 The following legend is applicable only to US Government
 contracts under FAR:
  
                    RESTRICTED RIGHTS LEGEND
  
 Use, reproduction and disclosure by the US Government is
 subject to restrictions as set forth in subparagraphs (a)
 and (c) of the Commercial Computer Software - Restricted
 Rights clause in FAR 52.227-19.
  
 Gaussian, Inc.
 340 Quinnipiac St., Bldg. 40, Wallingford CT 06492
  
  
 ---------------------------------------------------------------
 Warning -- This program may not be used in any manner that
 competes with the business of Gaussian, Inc. or will provide
 assistance to any competitor of Gaussian, Inc.  The licensee
 of this program is prohibited from giving any competitor of
 Gaussian, Inc. access to this program.  By using this program,
 the user acknowledges that Gaussian, Inc. is engaged in the
 business of creating and licensing software in the field of
 computational chemistry and represents and warrants to the
 licensee that it is not a competitor of Gaussian, Inc. and that
 it will not use this program in any manner prohibited above.
 ---------------------------------------------------------------
  

 Cite this work as:
 Gaussian 16, Revision C.01,
 M. J. Frisch, G. W. Trucks, H. B. Schlegel, G. E. Scuseria, 
 M. A. Robb, J. R. Cheeseman, G. Scalmani, V. Barone, 
 G. A. Petersson, H. Nakatsuji, X. Li, M. Caricato, A. V. Marenich, 
 J. Bloino, B. G. Janesko, R. Gomperts, B. Mennucci, H. P. Hratchian, 
 J. V. Ortiz, A. F. Izmaylov, J. L. Sonnenberg, D. Williams-Young, 
 F. Ding, F. Lipparini, F. Egidi, J. Goings, B. Peng, A. Petrone, 
 T. Henderson, D. Ranasinghe, V. G. Zakrzewski, J. Gao, N. Rega, 
 G. Zheng, W. Liang, M. Hada, M. Ehara, K. Toyota, R. Fukuda, 
 J. Hasegawa, M. Ishida, T. Nakajima, Y. Honda, O. Kitao, H. Nakai, 
 T. Vreven, K. Throssell, J. A. Montgomery, Jr., J. E. Peralta, 
 F. Ogliaro, M. J. Bearpark, J. J. Heyd, E. N. Brothers, K. N. Kudin, 
 V. N. Staroverov, T. A. Keith, R. Kobayashi, J. Normand, 
 K. Raghavachari, A. P. Rendell, J. C. Burant, S. S. Iyengar, 
 J. Tomasi, M. Cossi, J. M. Millam, M. Klene, C. Adamo, R. Cammi, 
 J. W. Ochterski, R. L. Martin, K. Morokuma, O. Farkas, 
 J. B. Foresman, and D. J. Fox, Gaussian, Inc., Wallingford CT, 2019.
 
 ******************************************
 Gaussian 16:  ES64L-G16RevC.01  3-Jul-2019
                29-Jan-2024 
 ******************************************
 %oldchk=TSOpt_FromFrozenBoth21.chk
 %chk=IRC_of_TSOpt_FromFrozenBoth21_Forward.chk
 %mem=3200MB
 %nprocs=4
 Will use up to    4 processors via shared memory.
 Copying data from "TSOpt_FromFrozenBoth21.chk" to current chk file "IRC_of_TSOpt_FromFrozenBoth21_Forward.chk"
 IOpt=  2 FromEx=T IUOpen= 4 IOptOp= 5 NList=   0 IFRang= 0 IUIn= 4 IUOut= 2.
 ----------------------------------------------------------------------
 # irc=(forward,rcfc,maxpoints=100,maxcycles=100) wb97xd/def2tzvpp geom
 =connectivity
 ----------------------------------------------------------------------
 1/6=100,10=5,18=10,22=1,26=3,38=1,42=100,44=3,57=2,172=1/1,23;
 2/12=2,17=6,18=5,29=1,40=1/2;
 3/5=44,7=202,11=2,25=1,30=1,71=2,74=-58,140=1/1,2,3;
 4//1;
 5/5=2,38=5/2;
 8/6=4,10=90,11=11/1;
 11/6=1,8=1,9=11,15=111,16=1/1,2,10;
 10/6=1,13=1/2;
 6/7=2,8=2,9=2,10=2,28=1/1;
 7/10=1,25=1/1,2,3,16;
 1/6=100,18=10,22=1,26=3,42=100,44=3/23(2);
 2/29=1/2;
 99/5=20/99;
 2/29=1/2;
 3/5=44,7=202,11=2,25=1,30=1,71=2,74=-58,140=1/1,2,3;
 4/5=5,16=3,69=1/1;
 5/5=2,38=5/2;
 8/6=4,10=90,11=11/1;
 11/6=1,8=1,9=11,15=111,16=1/1,2,10;
 10/6=1,13=1/2;
 7/10=1,25=1/1,2,3,16;
 1/6=100,18=10,22=1,26=3,42=100,44=3/23(-8);
 2/29=1/2;
 6/7=2,8=2,9=2,10=2,19=2,28=1/1;
 99/5=20,9=1/99;
 ----------------------------------------------------------------------
 TS Opt on modredundant with bond lengths 2 point 1 A and correct imag 
 freq
 ----------------------------------------------------------------------
 Symbolic Z-matrix:
 Charge =  0 Multiplicity = 1
 Si                    0.91731  -0.08748  -0.02743 
 O                     1.7976   -0.94932  -1.11272 
 H                     1.42568  -1.77549  -1.40966 
 O                     2.43126   0.9887    0.50385 
 H                     3.17897   0.90304  -0.09006 
 O                     0.35631   1.36462  -0.37473 
 H                     1.63587   1.64252   0.07284 
 O                     0.69269  -0.83118   1.41832 
 H                     1.32982  -0.5939    2.08781 
 C                    -1.93413  -1.06027   0.19837 
 H                    -1.64306  -1.65746   1.05638 
 H                    -2.7008   -1.57745  -0.37834 
 C                    -2.38279   0.34589   0.58514 
 H                    -1.7508    0.72442   1.39185 
 H                    -3.41113   0.30039   0.94829 
 O                    -0.76981  -0.97045  -0.66074 
 H                    -1.0399   -0.35376  -1.35884 
 O                    -2.3269    1.1915   -0.5347 
 H                    -1.41463   1.54771  -0.55165 
 
 IRC-IRC-IRC-IRC-IRC-IRC-IRC-IRC-IRC-IRC-IRC-IRC-IRC-IRC-IRC-IRC-IRC-IRC
 ------------------------------------------------------------------------
 INPUT DATA FOR L123
 ------------------------------------------------------------------------
 GENERAL PARAMETERS:
 Rxn path following direction = Forward
 Maximum points per path      = 100
 Step size                    =   0.100 bohr
 Integration scheme           = HPC                                 
    Redo corrector integration= Yes                                 
    DWI Weight Power          =  2
    DWI will use Hessian update vectors when possible.
    Max correction cycles     = 100
 Initial Hessian              = ReadFC from chk
 Hessian evaluation           = All updating
 Hessian updating method      = Bofill                              
 ------------------------------------------------------------------------
          ******** Start new reaction path calculation ********
 RCFC Option Requested - Data Read From Chk File:
 "IRC_of_TSOpt_FromFrozenBoth21_Forward.chk"
   Energy From Chk =   -823.3046990

 Supplied step size of   0.1000 bohr.
    Integration on MW PES will use step size of   0.1101 sqrt(amu)*bohr.
 Point Number:   0          Path Number:   1
 Calculating another point on the path.
 IRC-IRC-IRC-IRC-IRC-IRC-IRC-IRC-IRC-IRC-IRC-IRC-IRC-IRC-IRC-IRC-IRC-IRC
                          Input orientation:                          
 ---------------------------------------------------------------------
 Center     Atomic      Atomic             Coordinates (Angstroms)
 Number     Number       Type             X           Y           Z
 ---------------------------------------------------------------------
      1         14           0        0.892750   -0.093370   -0.015366
      2          8           0        1.769714   -0.954934   -1.102188
      3          1           0        1.397769   -1.780945   -1.399680
      4          8           0        2.401110    0.982277    0.514411
      5          1           0        3.149645    0.896523   -0.077973
      6          8           0        0.331308    1.361536   -0.363187
      7          1           0        1.559290    1.633291    0.066949
      8          8           0        0.664644   -0.836440    1.429522
      9          1           0        1.303614   -0.598470    2.097052
     10          6           0       -1.961469   -1.065462    0.209443
     11          1           0       -1.670208   -1.662583    1.067377
     12          1           0       -2.727950   -1.582712   -0.367424
     13          6           0       -2.410104    0.340546    0.596355
     14          1           0       -1.778166    0.719188    1.402999
     15          1           0       -3.438428    0.295375    0.959368
     16          8           0       -0.796958   -0.975028   -0.649614
     17          1           0       -1.068320   -0.361305   -1.349306
     18          8           0       -2.354365    1.186200   -0.523744
     19          1           0       -1.444856    1.545965   -0.540311
 ---------------------------------------------------------------------
                    Distance matrix (angstroms):
                    1          2          3          4          5
     1  Si   0.000000
     2  O    1.640896   0.000000
     3  H    2.240374   0.953487   0.000000
     4  O    1.926871   2.600930   3.507967   0.000000
     5  H    2.465235   2.526088   3.461908   0.958424   0.000000
     6  O    1.597795   2.825096   3.476613   2.279933   2.870646
     7  H    1.852676   2.847818   3.719421   1.154427   1.758710
     8  O    1.640697   2.764919   3.071473   2.675906   3.383922
     9  H    2.210485   3.252607   3.692458   2.491588   3.220802
    10  C    3.023585   3.956553   3.792845   4.828906   5.482287
    11  H    3.194294   4.128055   3.938637   4.886378   5.576005
    12  H    3.930846   4.600321   4.257511   5.802073   6.385648
    13  C    3.386935   4.694059   4.794243   4.854515   5.628022
    14  H    3.131422   4.654685   4.918560   4.280789   5.148597
    15  H    4.456493   5.739166   5.767583   5.896611   6.696280
    16  O    2.008657   2.606344   2.455387   3.926020   4.405128
    17  H    2.386834   2.909965   2.845963   4.161201   4.581445
    18  O    3.526968   4.682635   4.863097   4.871744   5.529624
    19  H    2.902997   4.111406   4.459524   4.027610   4.663150
                    6          7          8          9         10
     6  O    0.000000
     7  H    1.329213   0.000000
     8  O    2.855874   2.959149   0.000000
     9  H    3.292382   3.027779   0.954205   0.000000
    10  C    3.387484   4.438390   2.904739   3.800251   0.000000
    11  H    3.898446   4.721578   2.503038   3.322076   1.085097
    12  H    4.245901   5.376967   3.910963   4.826580   1.089870
    13  C    3.078714   4.208034   3.396106   4.114067   1.525723
    14  H    2.825227   3.709343   2.896205   3.422762   2.154796
    15  H    4.134823   5.250106   4.282202   4.957847   2.143752
    16  O    2.610471   3.587296   2.545250   3.478272   1.449911
    17  H    2.428903   3.590059   3.309199   4.190429   1.929572
    18  O    2.696175   3.983152   4.125619   4.840912   2.400398
    19  H    1.794477   3.066151   3.742471   4.371313   2.765604
                   11         12         13         14         15
    11  H    0.000000
    12  H    1.784334   0.000000
    13  C    2.186740   2.174584   0.000000
    14  H    2.407723   3.055361   1.092424   0.000000
    15  H    2.640430   2.406735   1.091453   1.769999   0.000000
    16  O    2.045325   2.043927   2.425987   2.836610   3.343668
    17  H    2.809973   2.282608   2.465476   3.040810   3.373221
    18  O    3.333962   2.798370   1.404585   2.064569   2.041662
    19  H    3.595862   3.385977   1.917485   2.138015   2.790581
                   16         17         18         19
    16  O    0.000000
    17  H    0.969464   0.000000
    18  O    2.666883   2.174910   0.000000
    19  H    2.605211   2.105690   0.978218   0.000000
 Symmetry turned off by external request.
 Stoichiometry    C2H10O6Si
 Framework group  C1[X(C2H10O6Si)]
 Deg. of freedom    51
 Full point group                 C1      NOp   1
 Rotational constants (GHZ):           2.2326727           0.9716394           0.8830348
 Standard basis: def2TZVPP (5D, 7F)
   430 basis functions,   647 primitive gaussians,   486 cartesian basis functions
    42 alpha electrons       42 beta electrons
       nuclear repulsion energy       671.5836666570 Hartrees.
 NAtoms=   19 NActive=   19 NUniq=   19 SFac= 1.00D+00 NAtFMM=   60 NAOKFM=F Big=F
 Integral buffers will be    131072 words long.
 Raffenetti 2 integral format.
 Two-electron integral symmetry is turned off.
 Nuclear repulsion after empirical dispersion term =      671.5731947132 Hartrees.
 One-electron integrals computed using PRISM.
   1 Symmetry operations used in ECPInt.
 ECPInt:  NShTT=   13203 NPrTT=   36019 LenC2=   12681 LenP2D=   27310.
 LDataN:  DoStor=T MaxTD1= 6 Len=  172
 NBasis=   430 RedAO= T EigKep=  2.04D-04  NBF=   430
 NBsUse=   430 1.00D-06 EigRej= -1.00D+00 NBFU=   430
 ExpMin= 7.01D-02 ExpMax= 4.48D+04 ExpMxC= 1.53D+03 IAcc=3 IRadAn=         5 AccDes= 0.00D+00
 Harris functional with IExCor= 4639 and IRadAn=       5 diagonalized for initial guess.
 HarFok:  IExCor= 4639 AccDes= 0.00D+00 IRadAn=         5 IDoV= 1 UseB2=F ITyADJ=14
 ICtDFT=  3500011 ScaDFX=  1.000000  1.000000  1.000000  1.000000
 FoFCou: FMM=F IPFlag=           0 FMFlag=      100000 FMFlg1=           0
         NFxFlg=           0 DoJE=T BraDBF=F KetDBF=T FulRan=T
         wScrn=  0.000000 ICntrl=       500 IOpCl=  0 I1Cent=   200000004 NGrid=           0
         NMat0=    1 NMatS0=      1 NMatT0=    0 NMatD0=    1 NMtDS0=    0 NMtDT0=    0
 Symmetry not used in FoFCou.
 Requested convergence on RMS density matrix=1.00D-08 within 128 cycles.
 Requested convergence on MAX density matrix=1.00D-06.
 Requested convergence on             energy=1.00D-06.
 No special actions if energy rises.
 Integral accuracy reduced to 1.0D-05 until final iterations.
 Initial convergence to 1.0D-05 achieved.  Increase integral accuracy.
 SCF Done:  E(RwB97XD) =  -823.304958525     A.U. after   13 cycles
            NFock= 13  Conv=0.10D-07     -V/T= 2.0034
 DoSCS=F DFT=T ScalE2(SS,OS)=  1.000000  1.000000
 Range of M.O.s used for correlation:     1   430
 NBasis=   430 NAE=    42 NBE=    42 NFC=     0 NFV=     0
 NROrb=    430 NOA=    42 NOB=    42 NVA=   388 NVB=   388

 **** Warning!!: The largest alpha MO coefficient is  0.13860239D+02

 Symmetrizing basis deriv contribution to polar:
 IMax=3 JMax=2 DiffMx= 0.00D+00

 **********************************************************************

            Population analysis using the SCF Density.

 **********************************************************************

 Alpha  occ. eigenvalues --  -66.31463 -19.32570 -19.26536 -19.25038 -19.24904
 Alpha  occ. eigenvalues --  -19.23861 -19.18691 -10.35500 -10.33375  -5.42896
 Alpha  occ. eigenvalues --   -3.77726  -3.77328  -3.77130  -1.20048  -1.14220
 Alpha  occ. eigenvalues --   -1.11872  -1.10763  -1.10112  -1.01546  -0.85812
 Alpha  occ. eigenvalues --   -0.73768  -0.67932  -0.65404  -0.63936  -0.61243
 Alpha  occ. eigenvalues --   -0.60619  -0.59033  -0.55570  -0.53511  -0.50762
 Alpha  occ. eigenvalues --   -0.50226  -0.48109  -0.47235  -0.45866  -0.44556
 Alpha  occ. eigenvalues --   -0.44356  -0.42128  -0.41546  -0.40714  -0.37323
 Alpha  occ. eigenvalues --   -0.36603  -0.35346
 Alpha virt. eigenvalues --    0.08374   0.11977   0.13086   0.14096   0.14517
 Alpha virt. eigenvalues --    0.16102   0.17733   0.18283   0.19801   0.21083
 Alpha virt. eigenvalues --    0.21973   0.24372   0.24631   0.25453   0.26558
 Alpha virt. eigenvalues --    0.27447   0.28541   0.29911   0.31675   0.32496
 Alpha virt. eigenvalues --    0.33007   0.34875   0.35612   0.37488   0.39236
 Alpha virt. eigenvalues --    0.41014   0.41540   0.42403   0.43677   0.44261
 Alpha virt. eigenvalues --    0.45418   0.45790   0.46642   0.47623   0.48558
 Alpha virt. eigenvalues --    0.50477   0.50983   0.52937   0.53410   0.54629
 Alpha virt. eigenvalues --    0.55288   0.56393   0.56688   0.58334   0.59647
 Alpha virt. eigenvalues --    0.60393   0.60674   0.61640   0.63183   0.64359
 Alpha virt. eigenvalues --    0.65405   0.67884   0.68788   0.69467   0.70755
 Alpha virt. eigenvalues --    0.72242   0.73645   0.74514   0.75612   0.77592
 Alpha virt. eigenvalues --    0.79083   0.81725   0.82762   0.84015   0.86115
 Alpha virt. eigenvalues --    0.86501   0.89010   0.90363   0.91568   0.92676
 Alpha virt. eigenvalues --    0.93711   0.95392   0.96013   0.96232   0.98730
 Alpha virt. eigenvalues --    1.00662   1.02443   1.03455   1.04980   1.06496
 Alpha virt. eigenvalues --    1.07355   1.08355   1.09896   1.12096   1.13017
 Alpha virt. eigenvalues --    1.14305   1.15934   1.17162   1.18856   1.20611
 Alpha virt. eigenvalues --    1.21617   1.22624   1.23433   1.26635   1.27138
 Alpha virt. eigenvalues --    1.29582   1.29986   1.31599   1.32884   1.33790
 Alpha virt. eigenvalues --    1.34905   1.38080   1.39129   1.39990   1.41208
 Alpha virt. eigenvalues --    1.42885   1.44515   1.45189   1.46267   1.47763
 Alpha virt. eigenvalues --    1.48488   1.51843   1.53333   1.54919   1.57216
 Alpha virt. eigenvalues --    1.58684   1.61491   1.63253   1.65965   1.66831
 Alpha virt. eigenvalues --    1.68570   1.74802   1.76521   1.78834   1.83554
 Alpha virt. eigenvalues --    1.84197   1.85348   1.88003   1.90376   1.92234
 Alpha virt. eigenvalues --    1.95064   1.96524   1.96854   1.99098   1.99253
 Alpha virt. eigenvalues --    2.00082   2.02529   2.04311   2.05261   2.06277
 Alpha virt. eigenvalues --    2.07457   2.09557   2.11349   2.12419   2.15478
 Alpha virt. eigenvalues --    2.17551   2.18527   2.22203   2.22532   2.25269
 Alpha virt. eigenvalues --    2.29846   2.30554   2.31204   2.32764   2.37349
 Alpha virt. eigenvalues --    2.39072   2.42345   2.42878   2.45402   2.50519
 Alpha virt. eigenvalues --    2.57266   2.58674   2.59739   2.64106   2.65486
 Alpha virt. eigenvalues --    2.66540   2.72473   2.73157   2.76690   2.77132
 Alpha virt. eigenvalues --    2.78426   2.80774   2.83831   2.85830   2.87915
 Alpha virt. eigenvalues --    2.90853   2.91935   2.94391   2.96854   2.98867
 Alpha virt. eigenvalues --    3.01207   3.04443   3.05843   3.08855   3.09889
 Alpha virt. eigenvalues --    3.11987   3.12696   3.13747   3.15120   3.18025
 Alpha virt. eigenvalues --    3.18188   3.21242   3.21890   3.23283   3.26680
 Alpha virt. eigenvalues --    3.27175   3.29893   3.31547   3.33605   3.35676
 Alpha virt. eigenvalues --    3.35964   3.37967   3.38122   3.39279   3.41202
 Alpha virt. eigenvalues --    3.43125   3.43622   3.44626   3.44980   3.46721
 Alpha virt. eigenvalues --    3.48563   3.50472   3.52319   3.54188   3.56190
 Alpha virt. eigenvalues --    3.58522   3.60295   3.62265   3.62682   3.63886
 Alpha virt. eigenvalues --    3.68738   3.69856   3.71670   3.72764   3.74725
 Alpha virt. eigenvalues --    3.75796   3.76413   3.78071   3.80979   3.81950
 Alpha virt. eigenvalues --    3.84409   3.86213   3.86793   3.90734   3.92263
 Alpha virt. eigenvalues --    3.93418   3.94140   3.98536   4.00428   4.01521
 Alpha virt. eigenvalues --    4.02494   4.04758   4.06017   4.07225   4.10089
 Alpha virt. eigenvalues --    4.10548   4.11335   4.12718   4.13247   4.14148
 Alpha virt. eigenvalues --    4.15831   4.17656   4.18722   4.20432   4.21112
 Alpha virt. eigenvalues --    4.21908   4.23279   4.25910   4.29834   4.30165
 Alpha virt. eigenvalues --    4.32298   4.35022   4.36090   4.37372   4.38683
 Alpha virt. eigenvalues --    4.43230   4.44179   4.45185   4.47409   4.48737
 Alpha virt. eigenvalues --    4.57159   4.58204   4.64841   4.66604   4.70880
 Alpha virt. eigenvalues --    4.73888   4.74775   4.76702   4.78837   4.82773
 Alpha virt. eigenvalues --    4.86305   4.89286   4.91923   4.94533   4.96895
 Alpha virt. eigenvalues --    4.97246   5.01110   5.01284   5.05640   5.06651
 Alpha virt. eigenvalues --    5.08327   5.10153   5.11249   5.16601   5.19039
 Alpha virt. eigenvalues --    5.21075   5.26321   5.28851   5.34473   5.36764
 Alpha virt. eigenvalues --    5.39373   5.39794   5.41625   5.43125   5.43658
 Alpha virt. eigenvalues --    5.45672   5.46201   5.49263   5.51519   5.56720
 Alpha virt. eigenvalues --    5.58922   5.59776   5.61387   5.61998   5.67704
 Alpha virt. eigenvalues --    5.70771   5.72130   5.74938   5.76823   5.78768
 Alpha virt. eigenvalues --    5.80470   5.85755   5.88891   5.95029   6.00254
 Alpha virt. eigenvalues --    6.01552   6.04852   6.15683   6.18737   6.50540
 Alpha virt. eigenvalues --    6.51696   6.52850   6.53735   6.56425   6.58796
 Alpha virt. eigenvalues --    6.63002   6.64041   6.65932   6.67420   6.68373
 Alpha virt. eigenvalues --    6.69249   6.71322   6.71992   6.72993   6.75551
 Alpha virt. eigenvalues --    6.76328   6.78552   6.78963   6.80469   6.80978
 Alpha virt. eigenvalues --    6.82452   6.85084   6.85738   6.87663   6.89884
 Alpha virt. eigenvalues --    6.92559   6.94814   6.99882   7.02784   7.05237
 Alpha virt. eigenvalues --    7.11051   7.13732   7.17641   7.21130   7.25263
 Alpha virt. eigenvalues --    7.28469   7.34246   7.36762   7.38944   7.41114
 Alpha virt. eigenvalues --    7.44117   7.49627   7.53991   7.59107   7.64397
 Alpha virt. eigenvalues --    7.67758   7.78341   7.79547   7.84738  12.78848
 Alpha virt. eigenvalues --   23.40089  23.48235  43.89619  43.93067  43.95135
 Alpha virt. eigenvalues --   44.12712  44.17509  44.23995
          Condensed to atoms (all electrons):
               1          2          3          4          5          6
     1  Si  11.492221   0.451622  -0.021176   0.246474  -0.012606   0.494208
     2  O    0.451622   7.703670   0.343184  -0.030839   0.002681  -0.018209
     3  H   -0.021176   0.343184   0.495475   0.002126  -0.000179   0.000310
     4  O    0.246474  -0.030839   0.002126   7.794980   0.325688  -0.134859
     5  H   -0.012606   0.002681  -0.000179   0.325688   0.497743   0.005628
     6  O    0.494208  -0.018209   0.000310  -0.134859   0.005628   8.161136
     7  H   -0.013541   0.000522  -0.000279   0.208462  -0.007398   0.158809
     8  O    0.419084  -0.025237  -0.001080  -0.023655   0.000868  -0.023674
     9  H   -0.015755   0.000069  -0.000012   0.001941  -0.000222  -0.000522
    10  C   -0.007897   0.001555   0.000183  -0.000094   0.000007  -0.002405
    11  H   -0.009296   0.000200  -0.000055   0.000050  -0.000006   0.000234
    12  H    0.002529  -0.000131  -0.000108   0.000003  -0.000001  -0.000187
    13  C    0.001299  -0.000385   0.000093   0.000059  -0.000003   0.002066
    14  H   -0.004165  -0.000085  -0.000019   0.000152  -0.000011   0.001173
    15  H    0.000510   0.000001  -0.000001  -0.000002   0.000000   0.000144
    16  O    0.201932  -0.029685   0.004694   0.000237   0.000085  -0.028511
    17  H   -0.015982   0.001930  -0.000262   0.000015  -0.000071   0.003722
    18  O   -0.005581  -0.000016   0.000004  -0.000103   0.000010  -0.032958
    19  H   -0.004141  -0.000047  -0.000022   0.000450  -0.000057   0.056887
               7          8          9         10         11         12
     1  Si  -0.013541   0.419084  -0.015755  -0.007897  -0.009296   0.002529
     2  O    0.000522  -0.025237   0.000069   0.001555   0.000200  -0.000131
     3  H   -0.000279  -0.001080  -0.000012   0.000183  -0.000055  -0.000108
     4  O    0.208462  -0.023655   0.001941  -0.000094   0.000050   0.000003
     5  H   -0.007398   0.000868  -0.000222   0.000007  -0.000006  -0.000001
     6  O    0.158809  -0.023674  -0.000522  -0.002405   0.000234  -0.000187
     7  H    0.366538  -0.000160   0.000032  -0.000157  -0.000013   0.000012
     8  O   -0.000160   7.720933   0.341886   0.004925   0.008344   0.000749
     9  H    0.000032   0.341886   0.494393  -0.001463  -0.000174   0.000001
    10  C   -0.000157   0.004925  -0.001463   4.932564   0.410595   0.412238
    11  H   -0.000013   0.008344  -0.000174   0.410595   0.537362  -0.018548
    12  H    0.000012   0.000749   0.000001   0.412238  -0.018548   0.554922
    13  C    0.000078  -0.017334   0.001099   0.271451  -0.020423  -0.029663
    14  H    0.000183   0.007404  -0.000294  -0.060217  -0.001712   0.007393
    15  H    0.000004  -0.000090  -0.000002  -0.042643   0.003975  -0.008902
    16  O    0.001174  -0.026382   0.001853   0.195739  -0.023250  -0.029696
    17  H   -0.000285   0.001350  -0.000070  -0.037192   0.008236  -0.004113
    18  O    0.000241   0.000323   0.000021  -0.070418   0.004488   0.003798
    19  H    0.000057   0.000046  -0.000057   0.003320  -0.000655  -0.000685
              13         14         15         16         17         18
     1  Si   0.001299  -0.004165   0.000510   0.201932  -0.015982  -0.005581
     2  O   -0.000385  -0.000085   0.000001  -0.029685   0.001930  -0.000016
     3  H    0.000093  -0.000019  -0.000001   0.004694  -0.000262   0.000004
     4  O    0.000059   0.000152  -0.000002   0.000237   0.000015  -0.000103
     5  H   -0.000003  -0.000011   0.000000   0.000085  -0.000071   0.000010
     6  O    0.002066   0.001173   0.000144  -0.028511   0.003722  -0.032958
     7  H    0.000078   0.000183   0.000004   0.001174  -0.000285   0.000241
     8  O   -0.017334   0.007404  -0.000090  -0.026382   0.001350   0.000323
     9  H    0.001099  -0.000294  -0.000002   0.001853  -0.000070   0.000021
    10  C    0.271451  -0.060217  -0.042643   0.195739  -0.037192  -0.070418
    11  H   -0.020423  -0.001712   0.003975  -0.023250   0.008236   0.004488
    12  H   -0.029663   0.007393  -0.008902  -0.029696  -0.004113   0.003798
    13  C    4.693497   0.440791   0.426810  -0.036687  -0.010662   0.263386
    14  H    0.440791   0.597231  -0.027567   0.000228   0.002774  -0.040681
    15  H    0.426810  -0.027567   0.587125   0.003626   0.000830  -0.027803
    16  O   -0.036687   0.000228   0.003626   7.704060   0.312842  -0.010334
    17  H   -0.010662   0.002774   0.000830   0.312842   0.492698   0.043577
    18  O    0.263386  -0.040681  -0.027803  -0.010334   0.043577   7.955426
    19  H   -0.033687  -0.012066   0.004510   0.001170  -0.002882   0.335614
              19
     1  Si  -0.004141
     2  O   -0.000047
     3  H   -0.000022
     4  O    0.000450
     5  H   -0.000057
     6  O    0.056887
     7  H    0.000057
     8  O    0.000046
     9  H   -0.000057
    10  C    0.003320
    11  H   -0.000655
    12  H   -0.000685
    13  C   -0.033687
    14  H   -0.012066
    15  H    0.004510
    16  O    0.001170
    17  H   -0.002882
    18  O    0.335614
    19  H    0.416881
 Mulliken charges:
               1
     1  Si   0.800260
     2  O   -0.400801
     3  H    0.177124
     4  O   -0.391084
     5  H    0.187845
     6  O   -0.642991
     7  H    0.285722
     8  O   -0.388299
     9  H    0.177278
    10  C   -0.010093
    11  H    0.100649
    12  H    0.110390
    13  C    0.048212
    14  H    0.089489
    15  H    0.079474
    16  O   -0.243094
    17  H    0.203548
    18  O   -0.418992
    19  H    0.235363
 Sum of Mulliken charges =  -0.00000
 Mulliken charges with hydrogens summed into heavy atoms:
               1
     1  Si   0.800260
     2  O   -0.223677
     4  O    0.082482
     6  O   -0.642991
     8  O   -0.211021
    10  C    0.200946
    13  C    0.217175
    16  O   -0.039546
    18  O   -0.183629
 Electronic spatial extent (au):  <R**2>=           1436.3932
 Charge=             -0.0000 electrons
 Dipole moment (field-independent basis, Debye):
    X=              0.2169    Y=             -3.0045    Z=              0.6563  Tot=              3.0830
 Quadrupole moment (field-independent basis, Debye-Ang):
   XX=            -55.9248   YY=            -62.0182   ZZ=            -57.3332
   XY=              6.1869   XZ=             -1.8334   YZ=              2.8118
 Traceless Quadrupole moment (field-independent basis, Debye-Ang):
   XX=              2.5006   YY=             -3.5928   ZZ=              1.0922
   XY=              6.1869   XZ=             -1.8334   YZ=              2.8118
 Octapole moment (field-independent basis, Debye-Ang**2):
  XXX=             32.8265  YYY=             -9.0783  ZZZ=              1.1247  XYY=             11.0469
  XXY=             -8.1926  XXZ=              7.7002  XZZ=              5.4895  YZZ=             -5.3181
  YYZ=             -6.0318  XYZ=             -6.2439
 Hexadecapole moment (field-independent basis, Debye-Ang**3):
 XXXX=          -1011.0570 YYYY=           -370.2782 ZZZZ=           -229.0299 XXXY=             67.9432
 XXXZ=            -32.3573 YYYX=              0.3466 YYYZ=             15.4144 ZZZX=             28.0596
 ZZZY=              4.5780 XXYY=           -248.2054 XXZZ=           -225.0007 YYZZ=           -102.1995
 XXYZ=             -4.0713 YYXZ=            -12.7226 ZZXY=             -7.1001
 N-N= 6.715731947132D+02 E-N=-3.292196816596D+03  KE= 8.204796166985D+02
  Exact polarizability:       0.000       0.000       0.000       0.000       0.000       0.000
 Approx polarizability:      81.200       1.305      73.547       0.426      -1.157      73.118
   1 Symmetry operations used in ECPInt.
 ECPInt:  NShTT=   13203 NPrTT=   36019 LenC2=   12681 LenP2D=   27310.
 LDataN:  DoStor=T MaxTD1= 7 Len=  274
 Calling FoFJK, ICntrl=      2127 FMM=F ISym2X=0 I1Cent= 0 IOpClX= 0 NMat=1 NMatS=1 NMatT=0.
 -------------------------------------------------------------------
 Center     Atomic                   Forces (Hartrees/Bohr)
 Number     Number              X              Y              Z
 -------------------------------------------------------------------
      1       14           0.005496320   -0.001743515    0.002077894
      2        8          -0.000601605   -0.000374997   -0.000687638
      3        1          -0.000024385    0.000033616   -0.000062503
      4        8          -0.002012015   -0.002483259   -0.000099550
      5        1          -0.000202516   -0.000112853    0.000106264
      6        8           0.002539284    0.002224791    0.000840079
      7        1          -0.004411377    0.001532942   -0.002116397
      8        8          -0.000903808    0.000007400   -0.000054607
      9        1           0.000203232    0.000102642   -0.000019275
     10        6           0.000020305    0.000049114    0.000004015
     11        1           0.000020661    0.000008427    0.000001500
     12        1           0.000017158    0.000003789   -0.000003501
     13        6           0.000039607   -0.000091239    0.000118431
     14        1           0.000002568    0.000003198    0.000013060
     15        1           0.000008439    0.000019644    0.000006176
     16        8           0.000279327    0.000622131    0.000293441
     17        1          -0.000130246   -0.000021325   -0.000301401
     18        8          -0.000126958   -0.000036335   -0.000162753
     19        1          -0.000213992    0.000255828    0.000046767
 -------------------------------------------------------------------
 Cartesian Forces:  Max     0.005496320 RMS     0.001249194
 IRC-IRC-IRC-IRC-IRC-IRC-IRC-IRC-IRC-IRC-IRC-IRC-IRC-IRC-IRC-IRC-IRC-IRC
 Pt  1 Step number   1 out of a maximum of 100
 Modified Bulirsch-Stoer Extrapolation Cycles:
    EPS =    0.000010000000000
      PEZero:  N= 2 I= 1 D=  2.87D-04 Err=  7.45D-04
      PEZero:  N= 3 I= 2 D=  2.87D-04 Err=  4.97D-04
      PEZero:  N= 3 I= 1 D=  5.73D-04 Err=  3.10D-07
 Maximum DWI energy   std dev =  0.000006303 at pt    29
 Maximum DWI gradient std dev =  0.210246996 at pt     6
 CORRECTOR INTEGRATION CONVERGENCE:
   Recorrection delta-x convergence threshold:    0.010000
   Delta-x Convergence Met
 Point Number:   1          Path Number:   1
   CHANGE IN THE REACTION COORDINATE =    0.10970
   NET REACTION COORDINATE UP TO THIS POINT =    0.10970
  # OF POINTS ALONG THE PATH =   1
  # OF STEPS =   1

 Calculating another point on the path.
 IRC-IRC-IRC-IRC-IRC-IRC-IRC-IRC-IRC-IRC-IRC-IRC-IRC-IRC-IRC-IRC-IRC-IRC
                          Input orientation:                          
 ---------------------------------------------------------------------
 Center     Atomic      Atomic             Coordinates (Angstroms)
 Number     Number       Type             X           Y           Z
 ---------------------------------------------------------------------
      1         14           0        0.895062   -0.094005   -0.014493
      2          8           0        1.769287   -0.955139   -1.102654
      3          1           0        1.397420   -1.780999   -1.400537
      4          8           0        2.399415    0.980943    0.514054
      5          1           0        3.148522    0.894404   -0.076775
      6          8           0        0.333098    1.363339   -0.362585
      7          1           0        1.508963    1.638333    0.046261
      8          8           0        0.664070   -0.836406    1.429537
      9          1           0        1.304926   -0.597612    2.095448
     10          6           0       -1.961463   -1.065422    0.209469
     11          1           0       -1.669983   -1.662437    1.067360
     12          1           0       -2.727778   -1.582717   -0.367500
     13          6           0       -2.410068    0.340452    0.596480
     14          1           0       -1.778185    0.719190    1.403100
     15          1           0       -3.438340    0.295608    0.959416
     16          8           0       -0.796791   -0.974504   -0.649517
     17          1           0       -1.069303   -0.363060   -1.351004
     18          8           0       -2.354425    1.186177   -0.523856
     19          1           0       -1.447502    1.549103   -0.539877
 ---------------------------------------------------------------------
                    Distance matrix (angstroms):
                    1          2          3          4          5
     1  Si   0.000000
     2  O    1.640096   0.000000
     3  H    2.240409   0.953449   0.000000
     4  O    1.923006   2.599849   3.506847   0.000000
     5  H    2.461486   2.524981   3.460706   0.957982   0.000000
     6  O    1.600257   2.825895   3.478073   2.276926   2.868484
     7  H    1.838902   2.848486   3.714499   1.201623   1.804639
     8  O    1.640042   2.765428   3.072357   2.674376   3.381890
     9  H    2.207591   3.251355   3.692001   2.488081   3.216133
    10  C    3.025483   3.956302   3.792923   4.826762   5.480402
    11  H    3.195285   4.127688   3.938722   4.884015   5.573551
    12  H    3.932664   4.599771   4.257198   5.799792   6.383694
    13  C    3.389090   4.693892   4.794330   4.852644   5.626550
    14  H    3.133226   4.654754   4.918922   4.279166   5.147152
    15  H    4.458550   5.738979   5.767690   5.894694   6.694699
    16  O    2.010199   2.605852   2.455407   3.923442   4.402993
    17  H    2.391105   2.910297   2.845650   4.161345   4.582022
    18  O    3.529516   4.682440   4.863028   4.870151   5.528783
    19  H    2.909199   4.115298   4.463619   4.028939   4.665462
                    6          7          8          9         10
     6  O    0.000000
     7  H    1.274926   0.000000
     8  O    2.856593   2.958315   0.000000
     9  H    3.291156   3.039778   0.954545   0.000000
    10  C    3.389857   4.402361   2.904210   3.800665   0.000000
    11  H    3.900307   4.695043   2.502259   3.322785   1.085065
    12  H    4.248321   5.338196   3.910364   4.826929   1.089828
    13  C    3.080757   4.164858   3.395483   4.114371   1.525617
    14  H    2.826674   3.673033   2.895719   3.423286   2.154805
    15  H    4.136602   5.206973   4.281616   4.958526   2.143825
    16  O    2.612373   3.553523   2.544729   3.477656   1.450029
    17  H    2.433959   3.550406   3.310596   4.191659   1.929854
    18  O    2.698179   3.931316   4.125275   4.840816   2.400392
    19  H    1.799021   3.015328   3.745394   4.373691   2.767925
                   11         12         13         14         15
    11  H    0.000000
    12  H    1.784407   0.000000
    13  C    2.186554   2.174575   0.000000
    14  H    2.407608   3.055409   1.092408   0.000000
    15  H    2.640583   2.407012   1.091364   1.769857   0.000000
    16  O    2.045331   2.044056   2.425754   2.836366   3.343595
    17  H    2.810281   2.281530   2.466835   3.042839   3.374051
    18  O    3.333922   2.798324   1.404814   2.064773   2.041588
    19  H    3.598152   3.387789   1.917988   2.138519   2.789725
                   16         17         18         19
    16  O    0.000000
    17  H    0.969645   0.000000
    18  O    2.666563   2.176200   0.000000
    19  H    2.608455   2.111239   0.976975   0.000000
 Symmetry turned off by external request.
 Stoichiometry    C2H10O6Si
 Framework group  C1[X(C2H10O6Si)]
 Deg. of freedom    51
 Full point group                 C1      NOp   1
 Rotational constants (GHZ):           2.2321985           0.9719759           0.8832464
 Standard basis: def2TZVPP (5D, 7F)
   430 basis functions,   647 primitive gaussians,   486 cartesian basis functions
    42 alpha electrons       42 beta electrons
       nuclear repulsion energy       671.6317201956 Hartrees.
 NAtoms=   19 NActive=   19 NUniq=   19 SFac= 1.00D+00 NAtFMM=   60 NAOKFM=F Big=F
 Integral buffers will be    131072 words long.
 Raffenetti 2 integral format.
 Two-electron integral symmetry is turned off.
 Nuclear repulsion after empirical dispersion term =      671.6212190386 Hartrees.
 One-electron integrals computed using PRISM.
   1 Symmetry operations used in ECPInt.
 ECPInt:  NShTT=   13203 NPrTT=   36019 LenC2=   12681 LenP2D=   27318.
 LDataN:  DoStor=T MaxTD1= 6 Len=  172
 NBasis=   430 RedAO= T EigKep=  2.04D-04  NBF=   430
 NBsUse=   430 1.00D-06 EigRej= -1.00D+00 NBFU=   430
 Initial guess from the checkpoint file:  "IRC_of_TSOpt_FromFrozenBoth21_Forward.chk"
 B after Tr=    -0.000620    0.000065   -0.000270
         Rot=    1.000000    0.000065   -0.000034   -0.000071 Ang=   0.01 deg.
 ExpMin= 7.01D-02 ExpMax= 4.48D+04 ExpMxC= 1.53D+03 IAcc=3 IRadAn=         5 AccDes= 0.00D+00
 Harris functional with IExCor= 4639 and IRadAn=       5 diagonalized for initial guess.
 HarFok:  IExCor= 4639 AccDes= 0.00D+00 IRadAn=         5 IDoV= 1 UseB2=F ITyADJ=14
 ICtDFT=  3500011 ScaDFX=  1.000000  1.000000  1.000000  1.000000
 FoFCou: FMM=F IPFlag=           0 FMFlag=      100000 FMFlg1=           0
         NFxFlg=           0 DoJE=T BraDBF=F KetDBF=T FulRan=T
         wScrn=  0.000000 ICntrl=       500 IOpCl=  0 I1Cent=   200000004 NGrid=           0
         NMat0=    1 NMatS0=      1 NMatT0=    0 NMatD0=    1 NMtDS0=    0 NMtDT0=    0
 Symmetry not used in FoFCou.
 Requested convergence on RMS density matrix=1.00D-08 within 128 cycles.
 Requested convergence on MAX density matrix=1.00D-06.
 Requested convergence on             energy=1.00D-06.
 No special actions if energy rises.
 Integral accuracy reduced to 1.0D-05 until final iterations.
 Initial convergence to 1.0D-05 achieved.  Increase integral accuracy.
 SCF Done:  E(RwB97XD) =  -823.305933960     A.U. after   11 cycles
            NFock= 11  Conv=0.88D-08     -V/T= 2.0035
 DoSCS=F DFT=T ScalE2(SS,OS)=  1.000000  1.000000
 Range of M.O.s used for correlation:     1   430
 NBasis=   430 NAE=    42 NBE=    42 NFC=     0 NFV=     0
 NROrb=    430 NOA=    42 NOB=    42 NVA=   388 NVB=   388

 **** Warning!!: The largest alpha MO coefficient is  0.14222915D+02

 Symmetrizing basis deriv contribution to polar:
 IMax=3 JMax=2 DiffMx= 0.00D+00
   1 Symmetry operations used in ECPInt.
 ECPInt:  NShTT=   13203 NPrTT=   36019 LenC2=   12681 LenP2D=   27318.
 LDataN:  DoStor=T MaxTD1= 7 Len=  274
 Calling FoFJK, ICntrl=      2127 FMM=F ISym2X=0 I1Cent= 0 IOpClX= 0 NMat=1 NMatS=1 NMatT=0.
 -------------------------------------------------------------------
 Center     Atomic                   Forces (Hartrees/Bohr)
 Number     Number              X              Y              Z
 -------------------------------------------------------------------
      1       14           0.012799041   -0.003214262    0.004716678
      2        8          -0.001358367   -0.000684466   -0.001412457
      3        1          -0.000071890   -0.000037884   -0.000178534
      4        8          -0.003662019   -0.005408492   -0.000309337
      5        1          -0.000133421   -0.000499529    0.000335374
      6        8           0.005187035    0.005538193    0.001431553
      7        1          -0.010981918    0.002333429   -0.004398554
      8        8          -0.001785746    0.000046511    0.000157569
      9        1           0.000224158    0.000173085   -0.000335446
     10        6           0.000000321    0.000091477    0.000044973
     11        1           0.000038533    0.000025469   -0.000004454
     12        1           0.000031888   -0.000002283   -0.000022452
     13        6           0.000072586   -0.000207037    0.000293387
     14        1          -0.000008258    0.000000575    0.000015423
     15        1           0.000011679    0.000042210    0.000001371
     16        8           0.000510915    0.001717936    0.000196914
     17        1          -0.000177101   -0.000410379   -0.000263648
     18        8          -0.000172651   -0.000082878   -0.000331833
     19        1          -0.000524784    0.000578325    0.000063473
 -------------------------------------------------------------------
 Cartesian Forces:  Max     0.012799041 RMS     0.002830721
 IRC-IRC-IRC-IRC-IRC-IRC-IRC-IRC-IRC-IRC-IRC-IRC-IRC-IRC-IRC-IRC-IRC-IRC
 Pt  2 Step number   1 out of a maximum of 100
 Modified Bulirsch-Stoer Extrapolation Cycles:
    EPS =    0.000010000000000
      PEZero:  N= 2 I= 1 D=  5.73D-04 Err=  3.64D-05
      PEZero:  N= 3 I= 2 D=  5.73D-04 Err=  2.42D-05
      PEZero:  N= 3 I= 1 D=  1.15D-03 Err=  1.98D-07
 Maximum DWI energy   std dev =  0.000021451 at pt    67
 Maximum DWI gradient std dev =  0.076010058 at pt    55
 CORRECTOR INTEGRATION CONVERGENCE:
   Recorrection delta-x convergence threshold:    0.010000
   Delta-x Convergence Met
 Point Number:   2          Path Number:   1
   CHANGE IN THE REACTION COORDINATE =    0.10996
   NET REACTION COORDINATE UP TO THIS POINT =    0.21966
  # OF POINTS ALONG THE PATH =   2
  # OF STEPS =   1

 Calculating another point on the path.
 IRC-IRC-IRC-IRC-IRC-IRC-IRC-IRC-IRC-IRC-IRC-IRC-IRC-IRC-IRC-IRC-IRC-IRC
                          Input orientation:                          
 ---------------------------------------------------------------------
 Center     Atomic      Atomic             Coordinates (Angstroms)
 Number     Number       Type             X           Y           Z
 ---------------------------------------------------------------------
      1         14           0        0.897105   -0.094471   -0.013749
      2          8           0        1.768905   -0.955316   -1.103026
      3          1           0        1.397166   -1.781126   -1.401310
      4          8           0        2.398589    0.979416    0.514017
      5          1           0        3.148354    0.891814   -0.075112
      6          8           0        0.334440    1.364929   -0.362229
      7          1           0        1.457631    1.647241    0.026443
      8          8           0        0.663576   -0.836395    1.429564
      9          1           0        1.306013   -0.596707    2.093884
     10          6           0       -1.961476   -1.065394    0.209491
     11          1           0       -1.669810   -1.662318    1.067336
     12          1           0       -2.727631   -1.582720   -0.367609
     13          6           0       -2.410048    0.340371    0.596590
     14          1           0       -1.778236    0.719191    1.403188
     15          1           0       -3.438284    0.295803    0.959407
     16          8           0       -0.796647   -0.974039   -0.649457
     17          1           0       -1.070221   -0.364905   -1.352370
     18          8           0       -2.354458    1.186156   -0.523946
     19          1           0       -1.449928    1.551701   -0.539642
 ---------------------------------------------------------------------
                    Distance matrix (angstroms):
                    1          2          3          4          5
     1  Si   0.000000
     2  O    1.639394   0.000000
     3  H    2.240579   0.953481   0.000000
     4  O    1.919954   2.598945   3.505983   0.000000
     5  H    2.458585   2.524158   3.459779   0.957546   0.000000
     6  O    1.602460   2.826659   3.479473   2.275333   2.867819
     7  H    1.830127   2.854101   3.714275   1.252645   1.854596
     8  O    1.639554   2.765846   3.073194   2.673138   3.380071
     9  H    2.204895   3.250093   3.691550   2.484727   3.211613
    10  C    3.027212   3.956079   3.793076   4.825365   5.479235
    11  H    3.196238   4.127357   3.938866   4.882293   5.571667
    12  H    3.934313   4.599273   4.256977   5.798270   6.382482
    13  C    3.390997   4.693734   4.794500   4.851617   5.625931
    14  H    3.134837   4.654813   4.919346   4.278342   5.146499
    15  H    4.460375   5.738792   5.767859   5.893622   6.693971
    16  O    2.011607   2.605405   2.455502   3.921631   4.401626
    17  H    2.394873   2.910566   2.845360   4.162120   4.583351
    18  O    3.531710   4.682238   4.863046   4.869452   5.528926
    19  H    2.914621   4.118667   4.467231   4.030979   4.668558
                    6          7          8          9         10
     6  O    0.000000
     7  H    1.221608   0.000000
     8  O    2.857390   2.961034   0.000000
     9  H    3.290055   3.054931   0.954724   0.000000
    10  C    3.391838   4.368317   2.903776   3.800933   0.000000
    11  H    3.901909   4.670924   2.501608   3.323379   1.085027
    12  H    4.250287   5.301354   3.909874   4.827158   1.089800
    13  C    3.082412   4.122126   3.394965   4.114501   1.525528
    14  H    2.827910   3.636969   2.895339   3.423630   2.154816
    15  H    4.138018   5.163990   4.281141   4.959029   2.143874
    16  O    2.613929   3.522744   2.544312   3.476993   1.450160
    17  H    2.438396   3.512819   3.311723   4.192480   1.929878
    18  O    2.699682   3.879118   4.124978   4.840526   2.400384
    19  H    1.802867   2.963694   3.748023   4.375652   2.769850
                   11         12         13         14         15
    11  H    0.000000
    12  H    1.784486   0.000000
    13  C    2.186393   2.174584   0.000000
    14  H    2.407517   3.055465   1.092379   0.000000
    15  H    2.640717   2.407249   1.091280   1.769734   0.000000
    16  O    2.045365   2.044170   2.425565   2.836176   3.343529
    17  H    2.810296   2.280315   2.467993   3.044609   3.374695
    18  O    3.333876   2.798281   1.405007   2.064929   2.041505
    19  H    3.600090   3.389206   1.918378   2.139029   2.788904
                   16         17         18         19
    16  O    0.000000
    17  H    0.969522   0.000000
    18  O    2.666265   2.177462   0.000000
    19  H    2.611168   2.116148   0.975727   0.000000
 Symmetry turned off by external request.
 Stoichiometry    C2H10O6Si
 Framework group  C1[X(C2H10O6Si)]
 Deg. of freedom    51
 Full point group                 C1      NOp   1
 Rotational constants (GHZ):           2.2317061           0.9721877           0.8833680
 Standard basis: def2TZVPP (5D, 7F)
   430 basis functions,   647 primitive gaussians,   486 cartesian basis functions
    42 alpha electrons       42 beta electrons
       nuclear repulsion energy       671.6576892721 Hartrees.
 NAtoms=   19 NActive=   19 NUniq=   19 SFac= 1.00D+00 NAtFMM=   60 NAOKFM=F Big=F
 Integral buffers will be    131072 words long.
 Raffenetti 2 integral format.
 Two-electron integral symmetry is turned off.
 Nuclear repulsion after empirical dispersion term =      671.6471574006 Hartrees.
 One-electron integrals computed using PRISM.
   1 Symmetry operations used in ECPInt.
 ECPInt:  NShTT=   13203 NPrTT=   36019 LenC2=   12684 LenP2D=   27322.
 LDataN:  DoStor=T MaxTD1= 6 Len=  172
 NBasis=   430 RedAO= T EigKep=  2.04D-04  NBF=   430
 NBsUse=   430 1.00D-06 EigRej= -1.00D+00 NBFU=   430
 Initial guess from the checkpoint file:  "IRC_of_TSOpt_FromFrozenBoth21_Forward.chk"
 B after Tr=    -0.000611    0.000096   -0.000250
         Rot=    1.000000    0.000063   -0.000027   -0.000074 Ang=   0.01 deg.
 ExpMin= 7.01D-02 ExpMax= 4.48D+04 ExpMxC= 1.53D+03 IAcc=3 IRadAn=         5 AccDes= 0.00D+00
 Harris functional with IExCor= 4639 and IRadAn=       5 diagonalized for initial guess.
 HarFok:  IExCor= 4639 AccDes= 0.00D+00 IRadAn=         5 IDoV= 1 UseB2=F ITyADJ=14
 ICtDFT=  3500011 ScaDFX=  1.000000  1.000000  1.000000  1.000000
 FoFCou: FMM=F IPFlag=           0 FMFlag=      100000 FMFlg1=           0
         NFxFlg=           0 DoJE=T BraDBF=F KetDBF=T FulRan=T
         wScrn=  0.000000 ICntrl=       500 IOpCl=  0 I1Cent=   200000004 NGrid=           0
         NMat0=    1 NMatS0=      1 NMatT0=    0 NMatD0=    1 NMtDS0=    0 NMtDT0=    0
 Symmetry not used in FoFCou.
 Requested convergence on RMS density matrix=1.00D-08 within 128 cycles.
 Requested convergence on MAX density matrix=1.00D-06.
 Requested convergence on             energy=1.00D-06.
 No special actions if energy rises.
 Integral accuracy reduced to 1.0D-05 until final iterations.
 Initial convergence to 1.0D-05 achieved.  Increase integral accuracy.
 SCF Done:  E(RwB97XD) =  -823.307770312     A.U. after   11 cycles
            NFock= 11  Conv=0.83D-08     -V/T= 2.0035
 DoSCS=F DFT=T ScalE2(SS,OS)=  1.000000  1.000000
 Range of M.O.s used for correlation:     1   430
 NBasis=   430 NAE=    42 NBE=    42 NFC=     0 NFV=     0
 NROrb=    430 NOA=    42 NOB=    42 NVA=   388 NVB=   388

 **** Warning!!: The largest alpha MO coefficient is  0.14510092D+02

 Symmetrizing basis deriv contribution to polar:
 IMax=3 JMax=2 DiffMx= 0.00D+00
   1 Symmetry operations used in ECPInt.
 ECPInt:  NShTT=   13203 NPrTT=   36019 LenC2=   12684 LenP2D=   27322.
 LDataN:  DoStor=T MaxTD1= 7 Len=  274
 Calling FoFJK, ICntrl=      2127 FMM=F ISym2X=0 I1Cent= 0 IOpClX= 0 NMat=1 NMatS=1 NMatT=0.
 -------------------------------------------------------------------
 Center     Atomic                   Forces (Hartrees/Bohr)
 Number     Number              X              Y              Z
 -------------------------------------------------------------------
      1       14           0.020830040   -0.004715592    0.007655922
      2        8          -0.002214516   -0.001033326   -0.002180229
      3        1          -0.000092838   -0.000052511   -0.000271226
      4        8          -0.004567096   -0.009167104   -0.000061558
      5        1          -0.000066848   -0.000968091    0.000635444
      6        8           0.006978095    0.009109815    0.001817885
      7        1          -0.017990671    0.003706283   -0.007169872
      8        8          -0.002867702    0.000080899    0.000170569
      9        1           0.000384682    0.000309858   -0.000562468
     10        6          -0.000047724    0.000118041    0.000096909
     11        1           0.000063003    0.000043206   -0.000008831
     12        1           0.000053706   -0.000002459   -0.000036194
     13        6           0.000093796   -0.000353903    0.000473531
     14        1          -0.000018281   -0.000001841    0.000033172
     15        1           0.000020457    0.000069888   -0.000002229
     16        8           0.000826871    0.002694523    0.000313924
     17        1          -0.000311391   -0.000642569   -0.000467382
     18        8          -0.000242009   -0.000145412   -0.000521132
     19        1          -0.000831575    0.000950297    0.000083765
 -------------------------------------------------------------------
 Cartesian Forces:  Max     0.020830040 RMS     0.004541299
 IRC-IRC-IRC-IRC-IRC-IRC-IRC-IRC-IRC-IRC-IRC-IRC-IRC-IRC-IRC-IRC-IRC-IRC
 Pt  3 Step number   1 out of a maximum of 100
 Modified Bulirsch-Stoer Extrapolation Cycles:
    EPS =    0.000010000000000
      PEZero:  N= 2 I= 1 D=  5.73D-04 Err=  2.94D-05
      PEZero:  N= 3 I= 2 D=  5.73D-04 Err=  1.95D-05
      PEZero:  N= 3 I= 1 D=  1.15D-03 Err=  1.15D-07
 Maximum DWI energy   std dev =  0.000004973 at pt    65
 Maximum DWI gradient std dev =  0.028496107 at pt    37
 CORRECTOR INTEGRATION CONVERGENCE:
   Recorrection delta-x convergence threshold:    0.010000
   Delta-x Convergence Met
 Point Number:   3          Path Number:   1
   CHANGE IN THE REACTION COORDINATE =    0.11004
   NET REACTION COORDINATE UP TO THIS POINT =    0.32970
  # OF POINTS ALONG THE PATH =   3
  # OF STEPS =   1

 Calculating another point on the path.
 IRC-IRC-IRC-IRC-IRC-IRC-IRC-IRC-IRC-IRC-IRC-IRC-IRC-IRC-IRC-IRC-IRC-IRC
                          Input orientation:                          
 ---------------------------------------------------------------------
 Center     Atomic      Atomic             Coordinates (Angstroms)
 Number     Number       Type             X           Y           Z
 ---------------------------------------------------------------------
      1         14           0        0.899186   -0.094905   -0.012985
      2          8           0        1.768518   -0.955491   -1.103401
      3          1           0        1.396927   -1.781271   -1.402042
      4          8           0        2.397937    0.977754    0.514053
      5          1           0        3.148455    0.888835   -0.073191
      6          8           0        0.335517    1.366515   -0.361962
      7          1           0        1.407058    1.657990    0.006342
      8          8           0        0.663077   -0.836381    1.429590
      9          1           0        1.307099   -0.595818    2.092317
     10          6           0       -1.961490   -1.065371    0.209515
     11          1           0       -1.669633   -1.662198    1.067312
     12          1           0       -2.727483   -1.582730   -0.367711
     13          6           0       -2.410030    0.340285    0.596699
     14          1           0       -1.778293    0.719181    1.403286
     15          1           0       -3.438229    0.295993    0.959398
     16          8           0       -0.796505   -0.973576   -0.649403
     17          1           0       -1.071099   -0.366652   -1.353686
     18          8           0       -2.354497    1.186130   -0.524036
     19          1           0       -1.452277    1.554296   -0.539422
 ---------------------------------------------------------------------
                    Distance matrix (angstroms):
                    1          2          3          4          5
     1  Si   0.000000
     2  O    1.638704   0.000000
     3  H    2.240770   0.953509   0.000000
     4  O    1.916931   2.598030   3.505091   0.000000
     5  H    2.455724   2.523311   3.458780   0.957100   0.000000
     6  O    1.604761   2.827532   3.480936   2.274228   2.867784
     7  H    1.825089   2.862248   3.716472   1.304735   1.905358
     8  O    1.639072   2.766266   3.074002   2.671897   3.378139
     9  H    2.202182   3.248829   3.691059   2.481326   3.206901
    10  C    3.028990   3.955855   3.793231   4.824076   5.478174
    11  H    3.197230   4.127022   3.938994   4.880632   5.569784
    12  H    3.936011   4.598771   4.256762   5.796855   6.381381
    13  C    3.392937   4.693574   4.794673   4.850747   5.625515
    14  H    3.136472   4.654876   4.919771   4.277674   5.146029
    15  H    4.462231   5.738603   5.768029   5.892705   6.693438
    16  O    2.013072   2.604954   2.455602   3.919921   4.400376
    17  H    2.398614   2.910808   2.845108   4.162943   4.584818
    18  O    3.533932   4.682036   4.863080   4.868950   5.529388
    19  H    2.919997   4.121969   4.470804   4.033158   4.671932
                    6          7          8          9         10
     6  O    0.000000
     7  H    1.169959   0.000000
     8  O    2.858269   2.966652   0.000000
     9  H    3.289105   3.072611   0.954904   0.000000
    10  C    3.393656   4.336483   2.903338   3.801197   0.000000
    11  H    3.903403   4.649229   2.500951   3.323964   1.084988
    12  H    4.252065   5.266556   3.909377   4.827379   1.089768
    13  C    3.083863   4.081057   3.394443   4.114634   1.525440
    14  H    2.829017   3.602676   2.894953   3.423979   2.154826
    15  H    4.139224   5.122514   4.280662   4.959534   2.143920
    16  O    2.615363   3.494400   2.543897   3.476332   1.450296
    17  H    2.442531   3.477084   3.312799   4.193243   1.929923
    18  O    2.700923   3.827956   4.124676   4.840241   2.400376
    19  H    1.806368   2.912801   3.750609   4.377579   2.771797
                   11         12         13         14         15
    11  H    0.000000
    12  H    1.784559   0.000000
    13  C    2.186231   2.174592   0.000000
    14  H    2.407416   3.055517   1.092354   0.000000
    15  H    2.640851   2.407484   1.091195   1.769608   0.000000
    16  O    2.045401   2.044284   2.425379   2.835995   3.343465
    17  H    2.810323   2.279167   2.469108   3.046317   3.375317
    18  O    3.333826   2.798239   1.405198   2.065096   2.041420
    19  H    3.602037   3.390659   1.918823   2.139583   2.788152
                   16         17         18         19
    16  O    0.000000
    17  H    0.969419   0.000000
    18  O    2.665968   2.178660   0.000000
    19  H    2.613861   2.120935   0.974568   0.000000
 Symmetry turned off by external request.
 Stoichiometry    C2H10O6Si
 Framework group  C1[X(C2H10O6Si)]
 Deg. of freedom    51
 Full point group                 C1      NOp   1
 Rotational constants (GHZ):           2.2311780           0.9723526           0.8834533
 Standard basis: def2TZVPP (5D, 7F)
   430 basis functions,   647 primitive gaussians,   486 cartesian basis functions
    42 alpha electrons       42 beta electrons
       nuclear repulsion energy       671.6824246263 Hartrees.
 NAtoms=   19 NActive=   19 NUniq=   19 SFac= 1.00D+00 NAtFMM=   60 NAOKFM=F Big=F
 Integral buffers will be    131072 words long.
 Raffenetti 2 integral format.
 Two-electron integral symmetry is turned off.
 Nuclear repulsion after empirical dispersion term =      671.6718609349 Hartrees.
 One-electron integrals computed using PRISM.
   1 Symmetry operations used in ECPInt.
 ECPInt:  NShTT=   13203 NPrTT=   36019 LenC2=   12686 LenP2D=   27327.
 LDataN:  DoStor=T MaxTD1= 6 Len=  172
 NBasis=   430 RedAO= T EigKep=  2.04D-04  NBF=   430
 NBsUse=   430 1.00D-06 EigRej= -1.00D+00 NBFU=   430
 Initial guess from the checkpoint file:  "IRC_of_TSOpt_FromFrozenBoth21_Forward.chk"
 B after Tr=    -0.000592    0.000113   -0.000247
         Rot=    1.000000    0.000063   -0.000026   -0.000073 Ang=   0.01 deg.
 ExpMin= 7.01D-02 ExpMax= 4.48D+04 ExpMxC= 1.53D+03 IAcc=3 IRadAn=         5 AccDes= 0.00D+00
 Harris functional with IExCor= 4639 and IRadAn=       5 diagonalized for initial guess.
 HarFok:  IExCor= 4639 AccDes= 0.00D+00 IRadAn=         5 IDoV= 1 UseB2=F ITyADJ=14
 ICtDFT=  3500011 ScaDFX=  1.000000  1.000000  1.000000  1.000000
 FoFCou: FMM=F IPFlag=           0 FMFlag=      100000 FMFlg1=           0
         NFxFlg=           0 DoJE=T BraDBF=F KetDBF=T FulRan=T
         wScrn=  0.000000 ICntrl=       500 IOpCl=  0 I1Cent=   200000004 NGrid=           0
         NMat0=    1 NMatS0=      1 NMatT0=    0 NMatD0=    1 NMtDS0=    0 NMtDT0=    0
 Symmetry not used in FoFCou.
 Requested convergence on RMS density matrix=1.00D-08 within 128 cycles.
 Requested convergence on MAX density matrix=1.00D-06.
 Requested convergence on             energy=1.00D-06.
 No special actions if energy rises.
 Integral accuracy reduced to 1.0D-05 until final iterations.
 Initial convergence to 1.0D-05 achieved.  Increase integral accuracy.
 SCF Done:  E(RwB97XD) =  -823.310444996     A.U. after   11 cycles
            NFock= 11  Conv=0.90D-08     -V/T= 2.0035
 DoSCS=F DFT=T ScalE2(SS,OS)=  1.000000  1.000000
 Range of M.O.s used for correlation:     1   430
 NBasis=   430 NAE=    42 NBE=    42 NFC=     0 NFV=     0
 NROrb=    430 NOA=    42 NOB=    42 NVA=   388 NVB=   388

 **** Warning!!: The largest alpha MO coefficient is  0.14633819D+02

 Symmetrizing basis deriv contribution to polar:
 IMax=3 JMax=2 DiffMx= 0.00D+00
   1 Symmetry operations used in ECPInt.
 ECPInt:  NShTT=   13203 NPrTT=   36019 LenC2=   12686 LenP2D=   27327.
 LDataN:  DoStor=T MaxTD1= 7 Len=  274
 Calling FoFJK, ICntrl=      2127 FMM=F ISym2X=0 I1Cent= 0 IOpClX= 0 NMat=1 NMatS=1 NMatT=0.
 -------------------------------------------------------------------
 Center     Atomic                   Forces (Hartrees/Bohr)
 Number     Number              X              Y              Z
 -------------------------------------------------------------------
      1       14           0.028731625   -0.005891037    0.010486042
      2        8          -0.003031037   -0.001383198   -0.002941481
      3        1          -0.000117436   -0.000075376   -0.000362080
      4        8          -0.004826425   -0.013299908    0.000396257
      5        1           0.000055012   -0.001506077    0.000975024
      6        8           0.006864263    0.012014284    0.001504203
      7        1          -0.023730923    0.005925252   -0.009416234
      8        8          -0.003923571    0.000101787    0.000200243
      9        1           0.000540705    0.000446134   -0.000782867
     10        6          -0.000083387    0.000148760    0.000140933
     11        1           0.000088082    0.000058302   -0.000010151
     12        1           0.000071388   -0.000004159   -0.000050792
     13        6           0.000116895   -0.000486886    0.000637594
     14        1          -0.000027818   -0.000005399    0.000050459
     15        1           0.000024989    0.000095070   -0.000003146
     16        8           0.001121968    0.003645996    0.000422874
     17        1          -0.000433245   -0.000869593   -0.000651389
     18        8          -0.000315992   -0.000200902   -0.000700535
     19        1          -0.001125093    0.001286951    0.000105044
 -------------------------------------------------------------------
 Cartesian Forces:  Max     0.028731625 RMS     0.006085988
 IRC-IRC-IRC-IRC-IRC-IRC-IRC-IRC-IRC-IRC-IRC-IRC-IRC-IRC-IRC-IRC-IRC-IRC
 Pt  4 Step number   1 out of a maximum of 100
 Modified Bulirsch-Stoer Extrapolation Cycles:
    EPS =    0.000010000000000
      PEZero:  N= 2 I= 1 D=  5.73D-04 Err=  3.11D-05
      PEZero:  N= 3 I= 2 D=  5.73D-04 Err=  2.07D-05
      PEZero:  N= 3 I= 1 D=  1.15D-03 Err=  8.34D-08
 Maximum DWI energy   std dev =  0.000008285 at pt    33
 Maximum DWI gradient std dev =  0.018237643 at pt    28
 CORRECTOR INTEGRATION CONVERGENCE:
   Recorrection delta-x convergence threshold:    0.010000
   Delta-x Convergence Met
 Point Number:   4          Path Number:   1
   CHANGE IN THE REACTION COORDINATE =    0.11005
   NET REACTION COORDINATE UP TO THIS POINT =    0.43974
  # OF POINTS ALONG THE PATH =   4
  # OF STEPS =   1

 Calculating another point on the path.
 IRC-IRC-IRC-IRC-IRC-IRC-IRC-IRC-IRC-IRC-IRC-IRC-IRC-IRC-IRC-IRC-IRC-IRC
                          Input orientation:                          
 ---------------------------------------------------------------------
 Center     Atomic      Atomic             Coordinates (Angstroms)
 Number     Number       Type             X           Y           Z
 ---------------------------------------------------------------------
      1         14           0        0.901424   -0.095330   -0.012175
      2          8           0        1.768109   -0.955681   -1.103800
      3          1           0        1.396676   -1.781433   -1.402815
      4          8           0        2.397344    0.975918    0.514129
      5          1           0        3.148730    0.885424   -0.071019
      6          8           0        0.336263    1.368104   -0.361825
      7          1           0        1.357233    1.671273   -0.013326
      8          8           0        0.662547   -0.836368    1.429618
      9          1           0        1.308263   -0.594852    2.090622
     10          6           0       -1.961504   -1.065344    0.209541
     11          1           0       -1.669442   -1.662073    1.067290
     12          1           0       -2.727331   -1.582739   -0.367818
     13          6           0       -2.410009    0.340199    0.596812
     14          1           0       -1.778352    0.719166    1.403396
     15          1           0       -3.438177    0.296196    0.959394
     16          8           0       -0.796354   -0.973084   -0.649346
     17          1           0       -1.072024   -0.368511   -1.355086
     18          8           0       -2.354542    1.186102   -0.524129
     19          1           0       -1.454667    1.557040   -0.539196
 ---------------------------------------------------------------------
                    Distance matrix (angstroms):
                    1          2          3          4          5
     1  Si   0.000000
     2  O    1.637984   0.000000
     3  H    2.241004   0.953540   0.000000
     4  O    1.913726   2.597057   3.504139   0.000000
     5  H    2.452697   2.522384   3.457673   0.956643   0.000000
     6  O    1.607265   2.828548   3.482488   2.273579   2.868365
     7  H    1.824459   2.873820   3.722018   1.357777   1.957127
     8  O    1.638587   2.766715   3.074862   2.670585   3.376031
     9  H    2.199271   3.247459   3.690514   2.477650   3.201753
    10  C    3.030915   3.955617   3.793396   4.822767   5.477107
    11  H    3.198325   4.126667   3.939131   4.878908   5.567789
    12  H    3.937859   4.598244   4.256540   5.795417   6.380283
    13  C    3.395017   4.693406   4.794860   4.849910   5.625198
    14  H    3.138224   4.654947   4.920226   4.277051   5.145646
    15  H    4.464233   5.738413   5.768222   5.891824   6.693002
    16  O    2.014669   2.604477   2.455713   3.918162   4.399114
    17  H    2.402610   2.911059   2.844839   4.163889   4.586496
    18  O    3.536309   4.681827   4.863126   4.868530   5.530074
    19  H    2.925618   4.125388   4.474528   4.035491   4.675630
                    6          7          8          9         10
     6  O    0.000000
     7  H    1.120599   0.000000
     8  O    2.859270   2.975389   0.000000
     9  H    3.288233   3.092623   0.955094   0.000000
    10  C    3.395270   4.307292   2.902872   3.801474   0.000000
    11  H    3.904766   4.630302   2.500249   3.324590   1.084952
    12  H    4.253601   5.234303   3.908852   4.827615   1.089739
    13  C    3.085058   4.041799   3.393888   4.114771   1.525348
    14  H    2.829969   3.570085   2.894540   3.424342   2.154835
    15  H    4.140169   5.082615   4.280157   4.960074   2.143976
    16  O    2.616611   3.469162   2.543457   3.475614   1.450439
    17  H    2.446563   3.444173   3.313941   4.194031   1.929977
    18  O    2.701833   3.778040   4.124360   4.839924   2.400367
    19  H    1.809582   2.862930   3.753295   4.379539   2.773876
                   11         12         13         14         15
    11  H    0.000000
    12  H    1.784645   0.000000
    13  C    2.186066   2.174603   0.000000
    14  H    2.407308   3.055574   1.092330   0.000000
    15  H    2.641000   2.407736   1.091114   1.769480   0.000000
    16  O    2.045441   2.044409   2.425182   2.835804   3.343403
    17  H    2.810359   2.277957   2.470300   3.048142   3.375994
    18  O    3.333779   2.798194   1.405396   2.065280   2.041333
    19  H    3.604111   3.392235   1.919347   2.140203   2.787438
                   16         17         18         19
    16  O    0.000000
    17  H    0.969316   0.000000
    18  O    2.665655   2.179946   0.000000
    19  H    2.616685   2.125991   0.973446   0.000000
 Symmetry turned off by external request.
 Stoichiometry    C2H10O6Si
 Framework group  C1[X(C2H10O6Si)]
 Deg. of freedom    51
 Full point group                 C1      NOp   1
 Rotational constants (GHZ):           2.2305923           0.9724797           0.8835093
 Standard basis: def2TZVPP (5D, 7F)
   430 basis functions,   647 primitive gaussians,   486 cartesian basis functions
    42 alpha electrons       42 beta electrons
       nuclear repulsion energy       671.7026697738 Hartrees.
 NAtoms=   19 NActive=   19 NUniq=   19 SFac= 1.00D+00 NAtFMM=   60 NAOKFM=F Big=F
 Integral buffers will be    131072 words long.
 Raffenetti 2 integral format.
 Two-electron integral symmetry is turned off.
 Nuclear repulsion after empirical dispersion term =      671.6920735260 Hartrees.
 One-electron integrals computed using PRISM.
   1 Symmetry operations used in ECPInt.
 ECPInt:  NShTT=   13203 NPrTT=   36019 LenC2=   12689 LenP2D=   27329.
 LDataN:  DoStor=T MaxTD1= 6 Len=  172
 NBasis=   430 RedAO= T EigKep=  2.03D-04  NBF=   430
 NBsUse=   430 1.00D-06 EigRej= -1.00D+00 NBFU=   430
 Initial guess from the checkpoint file:  "IRC_of_TSOpt_FromFrozenBoth21_Forward.chk"
 B after Tr=    -0.000581    0.000138   -0.000241
         Rot=    1.000000    0.000061   -0.000025   -0.000074 Ang=   0.01 deg.
 ExpMin= 7.01D-02 ExpMax= 4.48D+04 ExpMxC= 1.53D+03 IAcc=3 IRadAn=         5 AccDes= 0.00D+00
 Harris functional with IExCor= 4639 and IRadAn=       5 diagonalized for initial guess.
 HarFok:  IExCor= 4639 AccDes= 0.00D+00 IRadAn=         5 IDoV= 1 UseB2=F ITyADJ=14
 ICtDFT=  3500011 ScaDFX=  1.000000  1.000000  1.000000  1.000000
 FoFCou: FMM=F IPFlag=           0 FMFlag=      100000 FMFlg1=           0
         NFxFlg=           0 DoJE=T BraDBF=F KetDBF=T FulRan=T
         wScrn=  0.000000 ICntrl=       500 IOpCl=  0 I1Cent=   200000004 NGrid=           0
         NMat0=    1 NMatS0=      1 NMatT0=    0 NMatD0=    1 NMtDS0=    0 NMtDT0=    0
 Symmetry not used in FoFCou.
 Requested convergence on RMS density matrix=1.00D-08 within 128 cycles.
 Requested convergence on MAX density matrix=1.00D-06.
 Requested convergence on             energy=1.00D-06.
 No special actions if energy rises.
 Integral accuracy reduced to 1.0D-05 until final iterations.
 Initial convergence to 1.0D-05 achieved.  Increase integral accuracy.
 SCF Done:  E(RwB97XD) =  -823.313712493     A.U. after   11 cycles
            NFock= 11  Conv=0.81D-08     -V/T= 2.0034
 DoSCS=F DFT=T ScalE2(SS,OS)=  1.000000  1.000000
 Range of M.O.s used for correlation:     1   430
 NBasis=   430 NAE=    42 NBE=    42 NFC=     0 NFV=     0
 NROrb=    430 NOA=    42 NOB=    42 NVA=   388 NVB=   388

 **** Warning!!: The largest alpha MO coefficient is  0.14609367D+02

 Symmetrizing basis deriv contribution to polar:
 IMax=3 JMax=2 DiffMx= 0.00D+00
   1 Symmetry operations used in ECPInt.
 ECPInt:  NShTT=   13203 NPrTT=   36019 LenC2=   12689 LenP2D=   27329.
 LDataN:  DoStor=T MaxTD1= 7 Len=  274
 Calling FoFJK, ICntrl=      2127 FMM=F ISym2X=0 I1Cent= 0 IOpClX= 0 NMat=1 NMatS=1 NMatT=0.
 -------------------------------------------------------------------
 Center     Atomic                   Forces (Hartrees/Bohr)
 Number     Number              X              Y              Z
 -------------------------------------------------------------------
      1       14           0.036173100   -0.006405598    0.013071847
      2        8          -0.003757998   -0.001749363   -0.003689454
      3        1          -0.000143255   -0.000091685   -0.000440057
      4        8          -0.004923956   -0.017309287    0.000894456
      5        1           0.000208130   -0.002048365    0.001292223
      6        8           0.003755031    0.013772140    0.000221423
      7        1          -0.026389802    0.008629553   -0.010560004
      8        8          -0.004888434    0.000111891    0.000263439
      9        1           0.000674040    0.000563940   -0.000978123
     10        6          -0.000093424    0.000187645    0.000171488
     11        1           0.000110146    0.000070357   -0.000011189
     12        1           0.000086407   -0.000006413   -0.000062135
     13        6           0.000141403   -0.000584773    0.000766922
     14        1          -0.000034295   -0.000010690    0.000065207
     15        1           0.000026241    0.000114769   -0.000000390
     16        8           0.001381269    0.004513258    0.000530651
     17        1          -0.000529145   -0.001060813   -0.000809295
     18        8          -0.000486364   -0.000275511   -0.000857572
     19        1          -0.001309092    0.001578945    0.000130563
 -------------------------------------------------------------------
 Cartesian Forces:  Max     0.036173100 RMS     0.007284780
 IRC-IRC-IRC-IRC-IRC-IRC-IRC-IRC-IRC-IRC-IRC-IRC-IRC-IRC-IRC-IRC-IRC-IRC
 Pt  5 Step number   1 out of a maximum of 100
 Modified Bulirsch-Stoer Extrapolation Cycles:
    EPS =    0.000010000000000
      PEZero:  N= 2 I= 1 D=  5.73D-04 Err=  4.17D-05
      PEZero:  N= 3 I= 2 D=  5.73D-04 Err=  2.77D-05
      PEZero:  N= 3 I= 1 D=  1.15D-03 Err=  9.34D-08
 Maximum DWI energy   std dev =  0.000018000 at pt    36
 Maximum DWI gradient std dev =  0.020531282 at pt    38
 CORRECTOR INTEGRATION CONVERGENCE:
   Recorrection delta-x convergence threshold:    0.010000
   Delta-x Convergence Met
 Point Number:   5          Path Number:   1
   CHANGE IN THE REACTION COORDINATE =    0.11003
   NET REACTION COORDINATE UP TO THIS POINT =    0.54978
  # OF POINTS ALONG THE PATH =   5
  # OF STEPS =   1

 Calculating another point on the path.
 IRC-IRC-IRC-IRC-IRC-IRC-IRC-IRC-IRC-IRC-IRC-IRC-IRC-IRC-IRC-IRC-IRC-IRC
                          Input orientation:                          
 ---------------------------------------------------------------------
 Center     Atomic      Atomic             Coordinates (Angstroms)
 Number     Number       Type             X           Y           Z
 ---------------------------------------------------------------------
      1         14           0        0.903975   -0.095727   -0.011262
      2          8           0        1.767653   -0.955900   -1.104256
      3          1           0        1.396386   -1.781613   -1.403668
      4          8           0        2.396766    0.973781    0.514244
      5          1           0        3.149272    0.881270   -0.068436
      6          8           0        0.336428    1.369711   -0.361897
      7          1           0        1.309136    1.688448   -0.032524
      8          8           0        0.661951   -0.836356    1.429656
      9          1           0        1.309555   -0.593766    2.088711
     10          6           0       -1.961516   -1.065311    0.209567
     11          1           0       -1.669229   -1.661939    1.067268
     12          1           0       -2.727165   -1.582752   -0.367938
     13          6           0       -2.409986    0.340108    0.596933
     14          1           0       -1.778414    0.719142    1.403523
     15          1           0       -3.438129    0.296416    0.959400
     16          8           0       -0.796186   -0.972533   -0.649280
     17          1           0       -1.073027   -0.370561   -1.356642
     18          8           0       -2.354609    1.186069   -0.524233
     19          1           0       -1.457128    1.560076   -0.538929
 ---------------------------------------------------------------------
                    Distance matrix (angstroms):
                    1          2          3          4          5
     1  Si   0.000000
     2  O    1.637215   0.000000
     3  H    2.241310   0.953566   0.000000
     4  O    1.910086   2.595958   3.503047   0.000000
     5  H    2.449316   2.521307   3.456356   0.956211   0.000000
     6  O    1.610144   2.829835   3.484198   2.273627   2.869980
     7  H    1.829724   2.889883   3.732153   1.411610   2.009708
     8  O    1.638094   2.767233   3.075814   2.669112   3.373616
     9  H    2.196002   3.245926   3.689882   2.473495   3.195867
    10  C    3.033133   3.955351   3.793562   4.821342   5.476003
    11  H    3.199628   4.126277   3.939268   4.877004   5.565580
    12  H    3.940005   4.597662   4.256284   5.793857   6.379155
    13  C    3.397380   4.693223   4.795056   4.849045   5.625026
    14  H    3.140197   4.655031   4.920716   4.276422   5.145390
    15  H    4.466523   5.738218   5.768434   5.890925   6.692709
    16  O    2.016533   2.603949   2.455826   3.916232   4.397795
    17  H    2.407098   2.911320   2.844517   4.164965   4.588504
    18  O    3.538998   4.681613   4.863178   4.868168   5.531126
    19  H    2.931710   4.129036   4.478526   4.037996   4.679857
                    6          7          8          9         10
     6  O    0.000000
     7  H    1.075287   0.000000
     8  O    2.860482   2.988554   0.000000
     9  H    3.287506   3.115788   0.955299   0.000000
    10  C    3.396534   4.282401   2.902346   3.801769   0.000000
    11  H    3.905902   4.615765   2.499462   3.325281   1.084918
    12  H    4.254724   5.206244   3.908268   4.827870   1.089714
    13  C    3.085810   4.005759   3.393271   4.114913   1.525248
    14  H    2.830636   3.540445   2.894069   3.424728   2.154839
    15  H    4.140661   5.045612   4.279599   4.960673   2.144047
    16  O    2.617538   3.448708   2.542968   3.474796   1.450592
    17  H    2.450434   3.415773   3.315203   4.194875   1.930051
    18  O    2.702176   3.730575   4.124017   4.839565   2.400353
    19  H    1.812297   2.815163   3.756156   4.381559   2.776204
                   11         12         13         14         15
    11  H    0.000000
    12  H    1.784745   0.000000
    13  C    2.185893   2.174620   0.000000
    14  H    2.407184   3.055638   1.092308   0.000000
    15  H    2.641174   2.408022   1.091041   1.769350   0.000000
    16  O    2.045488   2.044554   2.424958   2.835584   3.343344
    17  H    2.810418   2.276646   2.471632   3.050170   3.376776
    18  O    3.333732   2.798141   1.405606   2.065494   2.041241
    19  H    3.606416   3.394054   1.920011   2.140914   2.786789
                   16         17         18         19
    16  O    0.000000
    17  H    0.969212   0.000000
    18  O    2.665310   2.181388   0.000000
    19  H    2.619757   2.131560   0.972404   0.000000
 Symmetry turned off by external request.
 Stoichiometry    C2H10O6Si
 Framework group  C1[X(C2H10O6Si)]
 Deg. of freedom    51
[...]
     14        1           0.000019151   -0.000055636    0.000005688
     15        1          -0.000017690   -0.000013234    0.000021179
     16        8          -0.001491944   -0.000560346   -0.001337287
     17        1           0.000054999   -0.000268397    0.000192476
     18        8           0.000412367   -0.000168399    0.000396466
     19        1          -0.000015333   -0.000001641    0.000034468
 -------------------------------------------------------------------
 Cartesian Forces:  Max     0.002313612 RMS     0.000724794
 IRC-IRC-IRC-IRC-IRC-IRC-IRC-IRC-IRC-IRC-IRC-IRC-IRC-IRC-IRC-IRC-IRC-IRC
 Error in corrector energy =          -0.0000171241
 Magnitude of corrector gradient =     0.0038351590
 Magnitude of analytic gradient =      0.0054720723
 Magnitude of difference =             0.0042804649
 Angle between gradients (degrees)=   51.1483
 Pt 94 Step number  96 out of a maximum of 100
 Modified Bulirsch-Stoer Extrapolation Cycles:
    EPS =    0.000010000000000
      PEZero:  N= 2 I= 1 D=  5.73D-04 Err=  4.40D-05
      PEZero:  N= 3 I= 2 D=  5.73D-04 Err=  2.93D-05
      PEZero:  N= 3 I= 1 D=  1.15D-03 Err=  2.34D-07
 Maximum DWI energy   std dev =  0.000001928 at pt    -1
 Maximum DWI gradient std dev =  0.598378840 at pt    55
 CORRECTOR INTEGRATION CONVERGENCE:
   Recorrection delta-x convergence threshold:    0.010000
   Delta-x Convergence NOT Met
 IRC-IRC-IRC-IRC-IRC-IRC-IRC-IRC-IRC-IRC-IRC-IRC-IRC-IRC-IRC-IRC-IRC-IRC
                          Input orientation:                          
 ---------------------------------------------------------------------
 Center     Atomic      Atomic             Coordinates (Angstroms)
 Number     Number       Type             X           Y           Z
 ---------------------------------------------------------------------
      1         14           0        1.308884    0.104487    0.113432
      2          8           0        1.637837   -0.966254   -1.060575
      3          1           0        0.891263   -1.531003   -1.266305
      4          8           0        2.725601    0.815612    0.529425
      5          1           0        3.525182    0.358027    0.279409
      6          8           0        0.341421    1.354798   -0.365655
      7          1           0        0.827285    2.137902   -0.625908
      8          8           0        0.632898   -0.618085    1.413546
      9          1           0        1.019560   -0.396914    2.257036
     10          6           0       -2.199295   -1.174024    0.078547
     11          1           0       -1.890395   -1.826938    0.892976
     12          1           0       -3.092292   -1.595300   -0.394097
     13          6           0       -2.492718    0.227357    0.603381
     14          1           0       -1.727684    0.517442    1.325374
     15          1           0       -3.461555    0.232003    1.106313
     16          8           0       -1.136714   -1.148984   -0.860954
     17          1           0       -1.370840   -0.473661   -1.502708
     18          8           0       -2.542288    1.156223   -0.462236
     19          1           0       -1.650431    1.507170   -0.549655
 ---------------------------------------------------------------------
                    Distance matrix (angstroms):
                    1          2          3          4          5
     1  Si   0.000000
     2  O    1.622649   0.000000
     3  H    2.180117   0.958457   0.000000
     4  O    1.638852   2.624191   3.477936   0.000000
     5  H    2.236919   2.666711   3.590988   0.954579   0.000000
     6  O    1.651904   2.747889   3.072677   2.603114   3.397939
     7  H    2.216605   3.237548   3.724925   2.585894   3.356516
     8  O    1.633819   2.693029   2.842846   2.686366   3.256435
     9  H    2.220394   3.422420   3.703586   2.713933   3.280104
    10  C    3.734050   4.008036   3.389337   5.330717   5.929347
    11  H    3.817522   4.123780   3.533793   5.331290   5.871882
    12  H    4.745230   4.818092   4.078430   6.365003   6.932536
    13  C    3.835012   4.610308   4.247220   5.251891   6.028030
    14  H    3.295464   4.384158   4.215662   4.533673   5.358363
    15  H    4.874337   5.668776   5.261609   6.241337   7.036628
    16  O    2.915744   2.787718   2.103078   4.550853   5.030385
    17  H    3.182308   3.080628   2.508180   4.751065   5.276237
    18  O    4.033493   4.726136   4.433619   5.371225   6.164523
    19  H    3.341369   4.146272   4.025455   4.559859   5.366083
                    6          7          8          9         10
     6  O    0.000000
     7  H    0.957626   0.000000
     8  O    2.672598   3.434039   0.000000
     9  H    3.225969   3.843648   0.953886   0.000000
    10  C    3.612132   4.541508   3.180033   3.963678   0.000000
    11  H    4.085168   5.041106   2.845931   3.517593   1.088583
    12  H    4.527060   5.417898   4.254358   5.037059   1.094673
    13  C    3.200390   4.022903   3.337755   3.931969   1.524931
    14  H    2.800347   3.600176   2.620981   3.041610   2.153613
    15  H    4.229655   5.002718   4.193040   4.669057   2.150933
    16  O    2.949429   3.836164   2.930312   3.864840   1.418580
    17  H    2.750998   3.524314   3.541238   4.455960   1.917606
    18  O    2.892152   3.513475   4.092497   4.742724   2.416638
    19  H    2.006128   2.557873   3.685710   4.316469   2.807969
                   11         12         13         14         15
    11  H    0.000000
    12  H    1.776167   0.000000
    13  C    2.160275   2.162529   0.000000
    14  H    2.389468   3.046705   1.091192   0.000000
    15  H    2.598710   2.393036   1.091608   1.770810   0.000000
    16  O    2.025816   2.059476   2.424322   2.811806   3.343972
    17  H    2.800108   2.334629   2.487096   3.017892   3.417022
    18  O    3.340780   2.806782   1.414492   2.065713   2.039504
    19  H    3.640748   3.424687   1.917514   2.121619   2.765583
                   16         17         18         19
    16  O    0.000000
    17  H    0.960586   0.000000
    18  O    2.729211   2.260839   0.000000
    19  H    2.723227   2.215890   0.962401   0.000000
 Symmetry turned off by external request.
 Stoichiometry    C2H10O6Si
 Framework group  C1[X(C2H10O6Si)]
 Deg. of freedom    51
 Full point group                 C1      NOp   1
 Rotational constants (GHZ):           2.2452504           0.8248394           0.7630343
 Standard basis: def2TZVPP (5D, 7F)
   430 basis functions,   647 primitive gaussians,   486 cartesian basis functions
    42 alpha electrons       42 beta electrons
       nuclear repulsion energy       646.1620591757 Hartrees.
 NAtoms=   19 NActive=   19 NUniq=   19 SFac= 1.00D+00 NAtFMM=   60 NAOKFM=F Big=F
 Integral buffers will be    131072 words long.
 Raffenetti 2 integral format.
 Two-electron integral symmetry is turned off.
 Nuclear repulsion after empirical dispersion term =      646.1511390711 Hartrees.
 One-electron integrals computed using PRISM.
   1 Symmetry operations used in ECPInt.
 ECPInt:  NShTT=   13203 NPrTT=   36019 LenC2=   12577 LenP2D=   26908.
 LDataN:  DoStor=T MaxTD1= 6 Len=  172
 NBasis=   430 RedAO= T EigKep=  2.32D-04  NBF=   430
 NBsUse=   430 1.00D-06 EigRej= -1.00D+00 NBFU=   430
 Initial guess from the checkpoint file:  "IRC_of_TSOpt_FromFrozenBoth21_Forward.chk"
 B after Tr=    -0.000022   -0.000083   -0.000030
         Rot=    1.000000    0.000018   -0.000026   -0.000017 Ang=   0.00 deg.
 ExpMin= 7.01D-02 ExpMax= 4.48D+04 ExpMxC= 1.53D+03 IAcc=3 IRadAn=         5 AccDes= 0.00D+00
 Harris functional with IExCor= 4639 and IRadAn=       5 diagonalized for initial guess.
 HarFok:  IExCor= 4639 AccDes= 0.00D+00 IRadAn=         5 IDoV= 1 UseB2=F ITyADJ=14
 ICtDFT=  3500011 ScaDFX=  1.000000  1.000000  1.000000  1.000000
 FoFCou: FMM=F IPFlag=           0 FMFlag=      100000 FMFlg1=           0
         NFxFlg=           0 DoJE=T BraDBF=F KetDBF=T FulRan=T
         wScrn=  0.000000 ICntrl=       500 IOpCl=  0 I1Cent=   200000004 NGrid=           0
         NMat0=    1 NMatS0=      1 NMatT0=    0 NMatD0=    1 NMtDS0=    0 NMtDT0=    0
 Symmetry not used in FoFCou.
 Requested convergence on RMS density matrix=1.00D-08 within 128 cycles.
 Requested convergence on MAX density matrix=1.00D-06.
 Requested convergence on             energy=1.00D-06.
 No special actions if energy rises.
 Integral accuracy reduced to 1.0D-05 until final iterations.
 Initial convergence to 1.0D-05 achieved.  Increase integral accuracy.
 SCF Done:  E(RwB97XD) =  -823.370908306     A.U. after    9 cycles
            NFock=  9  Conv=0.45D-08     -V/T= 2.0034
 DoSCS=F DFT=T ScalE2(SS,OS)=  1.000000  1.000000
 Range of M.O.s used for correlation:     1   430
 NBasis=   430 NAE=    42 NBE=    42 NFC=     0 NFV=     0
 NROrb=    430 NOA=    42 NOB=    42 NVA=   388 NVB=   388

 **** Warning!!: The largest alpha MO coefficient is  0.12857915D+02

 Symmetrizing basis deriv contribution to polar:
 IMax=3 JMax=2 DiffMx= 0.00D+00
   1 Symmetry operations used in ECPInt.
 ECPInt:  NShTT=   13203 NPrTT=   36019 LenC2=   12577 LenP2D=   26908.
 LDataN:  DoStor=T MaxTD1= 7 Len=  274
 Calling FoFJK, ICntrl=      2127 FMM=F ISym2X=0 I1Cent= 0 IOpClX= 0 NMat=1 NMatS=1 NMatT=0.
 -------------------------------------------------------------------
 Center     Atomic                   Forces (Hartrees/Bohr)
 Number     Number              X              Y              Z
 -------------------------------------------------------------------
      1       14           0.001454737    0.001120598    0.000636464
      2        8           0.000567376    0.000756509    0.000866575
      3        1          -0.001452318   -0.000976351   -0.000319114
      4        8           0.001070573   -0.000215582   -0.000846326
      5        1          -0.000296589    0.000094182    0.000226326
      6        8           0.001603892    0.002469447   -0.000010750
      7        1          -0.001038354   -0.001892399    0.000450805
      8        8           0.000336728    0.000605613    0.000189121
      9        1          -0.000127293    0.000257086    0.000222088
     10        6          -0.000822793   -0.000484090   -0.000667844
     11        1          -0.000060009   -0.000055715   -0.000056220
     12        1          -0.000075398    0.000008951   -0.000032596
     13        6          -0.000102402   -0.000545020   -0.000030808
     14        1           0.000009943   -0.000070786   -0.000001274
     15        1           0.000014233   -0.000008740   -0.000007042
     16        8          -0.001307881   -0.001108207   -0.000841371
     17        1          -0.000127057    0.000216423   -0.000218450
     18        8           0.000308703   -0.000161599    0.000399514
     19        1           0.000043910   -0.000010319    0.000040904
 -------------------------------------------------------------------
 Cartesian Forces:  Max     0.002469447 RMS     0.000732149
 IRC-IRC-IRC-IRC-IRC-IRC-IRC-IRC-IRC-IRC-IRC-IRC-IRC-IRC-IRC-IRC-IRC-IRC
 Error in corrector energy =          -0.0000169395
 Magnitude of corrector gradient =     0.0038876652
 Magnitude of analytic gradient =      0.0055276000
 Magnitude of difference =             0.0043635889
 Angle between gradients (degrees)=   51.7170
 Pt 94 Step number  97 out of a maximum of 100
 Modified Bulirsch-Stoer Extrapolation Cycles:
    EPS =    0.000010000000000
      PEZero:  N= 2 I= 1 D=  5.73D-04 Err=  5.87D-05
      PEZero:  N= 3 I= 2 D=  5.73D-04 Err=  3.91D-05
      PEZero:  N= 3 I= 1 D=  1.15D-03 Err=  2.43D-07
 Maximum DWI energy   std dev =  0.000002509 at pt    -1
 Maximum DWI gradient std dev =  0.735050146 at pt    54
 CORRECTOR INTEGRATION CONVERGENCE:
   Recorrection delta-x convergence threshold:    0.010000
   Delta-x Convergence NOT Met
 IRC-IRC-IRC-IRC-IRC-IRC-IRC-IRC-IRC-IRC-IRC-IRC-IRC-IRC-IRC-IRC-IRC-IRC
                          Input orientation:                          
 ---------------------------------------------------------------------
 Center     Atomic      Atomic             Coordinates (Angstroms)
 Number     Number       Type             X           Y           Z
 ---------------------------------------------------------------------
      1         14           0        1.308959    0.104564    0.113313
      2          8           0        1.638427   -0.966590   -1.060449
      3          1           0        0.886129   -1.529745   -1.266131
      4          8           0        2.725322    0.815329    0.529915
      5          1           0        3.524865    0.359380    0.279218
      6          8           0        0.341836    1.355421   -0.366410
      7          1           0        0.827133    2.135529   -0.621647
      8          8           0        0.632950   -0.618051    1.413530
      9          1           0        1.018554   -0.395865    2.257863
     10          6           0       -2.199344   -1.174076    0.078450
     11          1           0       -1.890562   -1.827091    0.892804
     12          1           0       -3.092428   -1.595226   -0.394234
     13          6           0       -2.492733    0.227304    0.603359
     14          1           0       -1.727802    0.517205    1.325493
     15          1           0       -3.461630    0.231958    1.106019
     16          8           0       -1.136757   -1.148991   -0.861078
     17          1           0       -1.370902   -0.471909   -1.502034
     18          8           0       -2.542124    1.156257   -0.462218
     19          1           0       -1.650205    1.507314   -0.549326
 ---------------------------------------------------------------------
                    Distance matrix (angstroms):
                    1          2          3          4          5
     1  Si   0.000000
     2  O    1.622849   0.000000
     3  H    2.180049   0.961977   0.000000
     4  O    1.638545   2.624087   3.479624   0.000000
     5  H    2.236671   2.666749   3.594415   0.953943   0.000000
     6  O    1.652302   2.748559   3.070820   2.603095   3.397147
     7  H    2.212948   3.236338   3.721971   2.583049   3.353210
     8  O    1.633930   2.693146   2.841807   2.685773   3.256564
     9  H    2.221230   3.423619   3.704288   2.714011   3.281315
    10  C    3.734210   4.008570   3.384456   5.330468   5.929449
    11  H    3.817831   4.124248   3.529791   5.331084   5.872307
    12  H    4.745429   4.818716   4.073501   6.364829   6.932719
    13  C    3.835111   4.610871   4.242514   5.251597   6.027769
    14  H    3.295690   4.384731   4.211787   4.533447   5.358182
    15  H    4.874445   5.669276   5.256776   6.241041   7.036402
    16  O    2.915881   2.788309   2.097882   4.550722   5.030525
    17  H    3.181718   3.081521   2.503769   4.750248   5.275646
    18  O    4.033378   4.726666   4.428747   5.370899   6.163855
    19  H    3.341175   4.146873   4.021259   4.559479   5.365221
                    6          7          8          9         10
     6  O    0.000000
     7  H    0.953534   0.000000
     8  O    2.673485   3.429556   0.000000
     9  H    3.226725   3.838772   0.954440   0.000000
    10  C    3.613011   4.539073   3.180171   3.963624   0.000000
    11  H    4.086270   5.038034   2.846234   3.517776   1.088553
    12  H    4.527832   5.416014   4.254565   5.037089   1.094713
    13  C    3.201231   4.020382   3.337798   3.931267   1.524950
    14  H    2.801525   3.596946   2.621012   3.040638   2.153578
    15  H    4.230434   5.000190   4.193168   4.668292   2.150859
    16  O    2.950087   3.834353   2.930461   3.865276   1.418603
    17  H    2.749955   3.522098   3.540805   4.455571   1.917625
    18  O    2.892416   3.512305   4.092395   4.741978   2.416666
    19  H    2.006180   2.556774   3.685482   4.315632   2.808115
                   11         12         13         14         15
    11  H    0.000000
    12  H    1.776151   0.000000
    13  C    2.160308   2.162509   0.000000
    14  H    2.389442   3.046643   1.091164   0.000000
    15  H    2.598730   2.392838   1.091536   1.770789   0.000000
    16  O    2.025869   2.059543   2.424342   2.811874   3.343879
    17  H    2.800324   2.335104   2.485978   3.016726   3.415921
    18  O    3.340806   2.806798   1.414513   2.065774   2.039409
    19  H    3.640847   3.424881   1.917540   2.121623   2.765495
                   16         17         18         19
    16  O    0.000000
    17  H    0.961296   0.000000
    18  O    2.729160   2.259182   0.000000
    19  H    2.723375   2.214269   0.962470   0.000000
 Symmetry turned off by external request.
 Stoichiometry    C2H10O6Si
 Framework group  C1[X(C2H10O6Si)]
 Deg. of freedom    51
 Full point group                 C1      NOp   1
 Rotational constants (GHZ):           2.2450042           0.8248302           0.7630155
 Standard basis: def2TZVPP (5D, 7F)
   430 basis functions,   647 primitive gaussians,   486 cartesian basis functions
    42 alpha electrons       42 beta electrons
       nuclear repulsion energy       646.1563155165 Hartrees.
 NAtoms=   19 NActive=   19 NUniq=   19 SFac= 1.00D+00 NAtFMM=   60 NAOKFM=F Big=F
 Integral buffers will be    131072 words long.
 Raffenetti 2 integral format.
 Two-electron integral symmetry is turned off.
 Nuclear repulsion after empirical dispersion term =      646.1453935288 Hartrees.
 One-electron integrals computed using PRISM.
   1 Symmetry operations used in ECPInt.
 ECPInt:  NShTT=   13203 NPrTT=   36019 LenC2=   12577 LenP2D=   26913.
 LDataN:  DoStor=T MaxTD1= 6 Len=  172
 NBasis=   430 RedAO= T EigKep=  2.33D-04  NBF=   430
 NBsUse=   430 1.00D-06 EigRej= -1.00D+00 NBFU=   430
 Initial guess from the checkpoint file:  "IRC_of_TSOpt_FromFrozenBoth21_Forward.chk"
 B after Tr=     0.000022    0.000083    0.000030
         Rot=    1.000000   -0.000018    0.000026    0.000017 Ang=  -0.00 deg.
 ExpMin= 7.01D-02 ExpMax= 4.48D+04 ExpMxC= 1.53D+03 IAcc=3 IRadAn=         5 AccDes= 0.00D+00
 Harris functional with IExCor= 4639 and IRadAn=       5 diagonalized for initial guess.
 HarFok:  IExCor= 4639 AccDes= 0.00D+00 IRadAn=         5 IDoV= 1 UseB2=F ITyADJ=14
 ICtDFT=  3500011 ScaDFX=  1.000000  1.000000  1.000000  1.000000
 FoFCou: FMM=F IPFlag=           0 FMFlag=      100000 FMFlg1=           0
         NFxFlg=           0 DoJE=T BraDBF=F KetDBF=T FulRan=T
         wScrn=  0.000000 ICntrl=       500 IOpCl=  0 I1Cent=   200000004 NGrid=           0
         NMat0=    1 NMatS0=      1 NMatT0=    0 NMatD0=    1 NMtDS0=    0 NMtDT0=    0
 Symmetry not used in FoFCou.
 Requested convergence on RMS density matrix=1.00D-08 within 128 cycles.
 Requested convergence on MAX density matrix=1.00D-06.
 Requested convergence on             energy=1.00D-06.
 No special actions if energy rises.
 Integral accuracy reduced to 1.0D-05 until final iterations.
 Initial convergence to 1.0D-05 achieved.  Increase integral accuracy.
 SCF Done:  E(RwB97XD) =  -823.370908273     A.U. after    9 cycles
            NFock=  9  Conv=0.43D-08     -V/T= 2.0034
 DoSCS=F DFT=T ScalE2(SS,OS)=  1.000000  1.000000
 Range of M.O.s used for correlation:     1   430
 NBasis=   430 NAE=    42 NBE=    42 NFC=     0 NFV=     0
 NROrb=    430 NOA=    42 NOB=    42 NVA=   388 NVB=   388

 **** Warning!!: The largest alpha MO coefficient is  0.12857148D+02

 Symmetrizing basis deriv contribution to polar:
 IMax=3 JMax=2 DiffMx= 0.00D+00
   1 Symmetry operations used in ECPInt.
 ECPInt:  NShTT=   13203 NPrTT=   36019 LenC2=   12577 LenP2D=   26913.
 LDataN:  DoStor=T MaxTD1= 7 Len=  274
 Calling FoFJK, ICntrl=      2127 FMM=F ISym2X=0 I1Cent= 0 IOpClX= 0 NMat=1 NMatS=1 NMatT=0.
ntrbks
ntrbks: Connection timed out
