 Entering Gaussian System, Link 0=/opt/software/gaussian/g16.c01/g16
 Initial command:
 /opt/software/gaussian/g16.c01/l1.exe "/scratch/arhender/17050683/Gau-80973.inp" -scrdir="/scratch/arhender/17050683/"
 Entering Link 1 = /opt/software/gaussian/g16.c01/l1.exe PID=     80975.
  
 Copyright (c) 1988-2019, Gaussian, Inc.  All Rights Reserved.
  
 This is part of the Gaussian(R) 16 program.  It is based on
 the Gaussian(R) 09 system (copyright 2009, Gaussian, Inc.),
 the Gaussian(R) 03 system (copyright 2003, Gaussian, Inc.),
 the Gaussian(R) 98 system (copyright 1998, Gaussian, Inc.),
 the Gaussian(R) 94 system (copyright 1995, Gaussian, Inc.),
 the Gaussian 92(TM) system (copyright 1992, Gaussian, Inc.),
 the Gaussian 90(TM) system (copyright 1990, Gaussian, Inc.),
 the Gaussian 88(TM) system (copyright 1988, Gaussian, Inc.),
 the Gaussian 86(TM) system (copyright 1986, Carnegie Mellon
 University), and the Gaussian 82(TM) system (copyright 1983,
 Carnegie Mellon University). Gaussian is a federally registered
 trademark of Gaussian, Inc.
  
 This software contains proprietary and confidential information,
 including trade secrets, belonging to Gaussian, Inc.
  
 This software is provided under written license and may be
 used, copied, transmitted, or stored only in accord with that
 written license.
  
 The following legend is applicable only to US Government
 contracts under FAR:
  
                    RESTRICTED RIGHTS LEGEND
  
 Use, reproduction and disclosure by the US Government is
 subject to restrictions as set forth in subparagraphs (a)
 and (c) of the Commercial Computer Software - Restricted
 Rights clause in FAR 52.227-19.
  
 Gaussian, Inc.
 340 Quinnipiac St., Bldg. 40, Wallingford CT 06492
  
  
 ---------------------------------------------------------------
 Warning -- This program may not be used in any manner that
 competes with the business of Gaussian, Inc. or will provide
 assistance to any competitor of Gaussian, Inc.  The licensee
 of this program is prohibited from giving any competitor of
 Gaussian, Inc. access to this program.  By using this program,
 the user acknowledges that Gaussian, Inc. is engaged in the
 business of creating and licensing software in the field of
 computational chemistry and represents and warrants to the
 licensee that it is not a competitor of Gaussian, Inc. and that
 it will not use this program in any manner prohibited above.
 ---------------------------------------------------------------
  

 Cite this work as:
 Gaussian 16, Revision C.01,
 M. J. Frisch, G. W. Trucks, H. B. Schlegel, G. E. Scuseria, 
 M. A. Robb, J. R. Cheeseman, G. Scalmani, V. Barone, 
 G. A. Petersson, H. Nakatsuji, X. Li, M. Caricato, A. V. Marenich, 
 J. Bloino, B. G. Janesko, R. Gomperts, B. Mennucci, H. P. Hratchian, 
 J. V. Ortiz, A. F. Izmaylov, J. L. Sonnenberg, D. Williams-Young, 
 F. Ding, F. Lipparini, F. Egidi, J. Goings, B. Peng, A. Petrone, 
 T. Henderson, D. Ranasinghe, V. G. Zakrzewski, J. Gao, N. Rega, 
 G. Zheng, W. Liang, M. Hada, M. Ehara, K. Toyota, R. Fukuda, 
 J. Hasegawa, M. Ishida, T. Nakajima, Y. Honda, O. Kitao, H. Nakai, 
 T. Vreven, K. Throssell, J. A. Montgomery, Jr., J. E. Peralta, 
 F. Ogliaro, M. J. Bearpark, J. J. Heyd, E. N. Brothers, K. N. Kudin, 
 V. N. Staroverov, T. A. Keith, R. Kobayashi, J. Normand, 
 K. Raghavachari, A. P. Rendell, J. C. Burant, S. S. Iyengar, 
 J. Tomasi, M. Cossi, J. M. Millam, M. Klene, C. Adamo, R. Cammi, 
 J. W. Ochterski, R. L. Martin, K. Morokuma, O. Farkas, 
 J. B. Foresman, and D. J. Fox, Gaussian, Inc., Wallingford CT, 2019.
 
 ******************************************
 Gaussian 16:  ES64L-G16RevC.01  3-Jul-2019
                17-Feb-2024 
 ******************************************
 %chk=IRC_PL2attDep_OHLG_forward.chk
 %mem=1600MB
 %nprocs=4
 Will use up to    4 processors via shared memory.
 ----------------------------------------------------------------------
 # irc=(forward,calcfc,maxpoints=100,maxcycle=100) wb97xd/def2tzvpp geo
 m=connectivity
 ----------------------------------------------------------------------
 1/6=100,10=4,18=10,22=1,26=3,38=1,42=100,44=3,57=2,172=1/1,23;
 2/12=2,17=6,18=5,29=1,40=1/2;
 3/5=44,7=202,11=2,25=1,30=1,71=2,74=-58,140=1/1,2,3;
 4//1;
 5/5=2,38=5/2;
 8/6=4,10=90,11=11/1;
 11/6=1,8=1,9=11,15=111,16=1/1,2,10;
 10/6=1,13=1/2;
 6/7=2,8=2,9=2,10=2,28=1/1;
 7/10=1,25=1/1,2,3,16;
 1/6=100,10=4,18=10,22=1,26=3,42=100,44=3/23(2);
 2/29=1/2;
 99/5=20/99;
 2/29=1/2;
 3/5=44,7=202,11=2,25=1,30=1,71=2,74=-58,140=1/1,2,3;
 4/5=5,16=3,69=1/1;
 5/5=2,38=5/2;
 8/6=4,10=90,11=11/1;
 11/6=1,8=1,9=11,15=111,16=1/1,2,10;
 10/6=1,13=1/2;
 7/10=1,25=1/1,2,3,16;
 1/6=100,18=10,22=1,26=3,42=100,44=3/23(-8);
 2/29=1/2;
 6/7=2,8=2,9=2,10=2,19=2,28=1/1;
 99/5=20,9=1/99;
 ---------------------------------------------------------
 PL2 OH attack IRC atacking group deprotonated hydroxyl LG
 ---------------------------------------------------------
 Symbolic Z-matrix:
 Charge = -2 Multiplicity = 1
 C                     2.74066  -0.97926   0.89026 
 H                     2.12481  -1.77757   1.32125 
 H                     3.79226  -1.26756   0.92532 
 C                     2.34765  -0.83998  -0.5544 
 H                     2.12159   0.12368  -0.96317 
 H                     2.34507  -1.69744  -1.19462 
 O                     2.60091   0.21508   1.62746 
 O                     4.2265   -0.55006  -1.27345 
 H                     4.46057   0.23251  -0.77226 
 Si                   -0.7668   -0.17902  -0.13019 
 O                    -1.90199  -0.21731   1.19589 
 H                     1.69931   0.55063   1.43034 
 O                     0.46566  -1.18779  -0.27173 
 O                    -1.95133  -1.16402  -1.05741 
 C                    -3.04984  -0.95693   0.96818 
 H                    -3.91977  -0.48344   1.45422 
 H                    -2.95241  -1.9768    1.38335 
 C                    -3.21772  -1.04033  -0.5516 
 H                    -3.85631  -1.89647  -0.83508 
 H                    -3.72791  -0.12056  -0.91 
 O                     0.15692   1.06439   0.88175 
 C                    -0.17136   2.35384   0.5453 
 H                     0.63604   3.05922   0.80121 
 H                    -1.08852   2.69335   1.06817 
 C                    -0.42881   2.3283   -0.96233 
 O                    -1.05928   1.12643  -1.24198 
 H                    -1.05526   3.17643  -1.28485 
 H                     0.53316   2.4027   -1.498 
 
 IRC-IRC-IRC-IRC-IRC-IRC-IRC-IRC-IRC-IRC-IRC-IRC-IRC-IRC-IRC-IRC-IRC-IRC
 ------------------------------------------------------------------------
 INPUT DATA FOR L123
 ------------------------------------------------------------------------
 GENERAL PARAMETERS:
 Rxn path following direction = Forward
 Maximum points per path      = 100
 Step size                    =   0.100 bohr
 Integration scheme           = HPC                                 
    Redo corrector integration= Yes                                 
    DWI Weight Power          =  2
    DWI will use Hessian update vectors when possible.
    Max correction cycles     = 100
 Initial Hessian              = CalcFC
 Hessian evaluation           = All updating
 Hessian updating method      = Bofill                              
 ------------------------------------------------------------------------
 IRC-IRC-IRC-IRC-IRC-IRC-IRC-IRC-IRC-IRC-IRC-IRC-IRC-IRC-IRC-IRC-IRC-IRC
                          Input orientation:                          
 ---------------------------------------------------------------------
 Center     Atomic      Atomic             Coordinates (Angstroms)
 Number     Number       Type             X           Y           Z
 ---------------------------------------------------------------------
      1          6           0        2.740659   -0.979262    0.890260
      2          1           0        2.124805   -1.777572    1.321247
      3          1           0        3.792262   -1.267560    0.925318
      4          6           0        2.347646   -0.839979   -0.554399
      5          1           0        2.121591    0.123684   -0.963165
      6          1           0        2.345066   -1.697435   -1.194623
      7          8           0        2.600907    0.215075    1.627456
      8          8           0        4.226498   -0.550058   -1.273451
      9          1           0        4.460566    0.232507   -0.772263
     10         14           0       -0.766796   -0.179018   -0.130187
     11          8           0       -1.901991   -0.217314    1.195890
     12          1           0        1.699306    0.550631    1.430344
     13          8           0        0.465656   -1.187789   -0.271732
     14          8           0       -1.951328   -1.164015   -1.057409
     15          6           0       -3.049839   -0.956925    0.968184
     16          1           0       -3.919768   -0.483442    1.454221
     17          1           0       -2.952405   -1.976795    1.383347
     18          6           0       -3.217715   -1.040329   -0.551599
     19          1           0       -3.856309   -1.896474   -0.835077
     20          1           0       -3.727912   -0.120558   -0.909996
     21          8           0        0.156921    1.064386    0.881754
     22          6           0       -0.171364    2.353838    0.545301
     23          1           0        0.636040    3.059221    0.801205
     24          1           0       -1.088515    2.693351    1.068173
     25          6           0       -0.428807    2.328302   -0.962328
     26          8           0       -1.059284    1.126427   -1.241980
     27          1           0       -1.055261    3.176425   -1.284851
     28          1           0        0.533157    2.402701   -1.498002
 ---------------------------------------------------------------------
                    Distance matrix (angstroms):
                    1          2          3          4          5
     1  C    0.000000
     2  H    1.096506   0.000000
     3  H    1.090969   1.788095   0.000000
     4  C    1.503628   2.108741   2.111706   0.000000
     5  H    2.243863   2.972091   2.879769   1.070905   0.000000
     6  H    2.240313   2.526764   2.602560   1.070105   1.849321
     7  O    1.410471   2.071492   2.027444   2.436754   2.636174
     8  O    2.659620   3.557578   2.353286   2.032529   2.231779
     9  H    2.681501   3.725450   2.361909   2.379521   2.349274
    10  Si   3.739511   3.608794   4.804584   3.211942   3.021301
    11  O    4.714676   4.320325   5.796615   4.637956   4.578975
    12  H    1.927869   2.369279   2.818037   2.508654   2.467690
    13  O    2.563074   2.374490   3.536326   1.934621   2.222647
    14  O    5.083531   4.759130   6.077068   4.340414   4.272671
    15  C    5.791065   5.251196   6.849283   5.609348   5.625079
    16  H    6.702625   6.182986   7.769812   6.591066   6.535318
    17  H    5.800792   5.081497   6.797304   5.756540   5.971898
    18  C    6.130653   5.709080   7.167475   5.568967   5.480192
    19  H    6.880265   6.359056   7.873701   6.299525   6.311318
    20  H    6.769099   6.479077   7.825408   6.128329   5.854841
    21  O    3.294279   3.484601   4.319210   3.238583   2.854571
    22  C    4.439418   4.789889   5.382311   4.213694   3.536481
    23  H    4.554854   5.087380   5.357068   4.468894   3.733261
    24  H    5.308702   5.511681   6.287385   5.188869   4.586317
    25  C    4.941414   5.347322   5.857547   4.232387   3.371182
    26  O    4.839415   5.014157   5.828023   3.993331   3.346819
    27  H    6.034058   6.437907   6.937747   5.314587   4.417590
    28  H    4.691965   5.287361   5.474035   3.833762   2.828974
                    6          7          8          9         10
     6  H    0.000000
     7  O    3.418666   0.000000
     8  O    2.205102   3.412219   0.000000
     9  H    2.894547   3.035998   0.958324   0.000000
    10  Si   3.622471   3.819168   5.135923   5.282701   0.000000
    11  O    5.093408   4.544150   6.615644   6.675185   1.746028
    12  H    3.515858   0.982006   3.861182   3.546440   3.008206
    13  O    2.154913   3.183432   3.943865   4.269318   1.598935
    14  O    4.331555   5.461981   6.212017   6.568407   1.798076
    15  C    5.859274   5.808541   7.624667   7.800647   2.650253
    16  H    6.909291   6.560270   8.591058   8.700564   3.541787
    17  H    5.898065   5.975212   7.786578   8.029932   3.209311
    18  C    5.638244   6.338823   7.495181   7.786193   2.631815
    19  H    6.214977   7.226226   8.205899   8.585273   3.604388
    20  H    6.280813   6.826805   7.974284   8.197243   3.062634
    21  O    4.089862   2.692669   4.879836   4.684993   1.850225
    22  C    5.076669   3.664813   5.575093   5.262204   2.688156
    23  H    5.434140   3.554231   5.497498   5.009303   3.649881
    24  H    6.015707   4.479563   6.652238   6.343127   3.128909
    25  C    4.894373   4.511305   5.482118   5.323011   2.663334
    26  O    4.423351   4.739327   5.545366   5.611459   1.739488
    27  H    5.943473   5.533416   6.464038   6.273257   3.560261
    28  H    4.492902   4.339330   4.733918   4.545435   3.197822
                   11         12         13         14         15
    11  O    0.000000
    12  H    3.689722   0.000000
    13  O    2.949829   2.727830   0.000000
    14  O    2.444593   4.738782   2.541587   0.000000
    15  C    1.384352   5.004068   3.734889   2.313577   0.000000
    16  H    2.051581   5.713481   4.765182   3.262855   1.103265
    17  H    2.057737   5.294196   3.878783   2.760445   1.105436
    18  C    2.337135   5.535011   3.696930   1.369262   1.531300
    19  H    3.280818   6.479607   4.415764   2.053017   2.187441
    20  H    2.788925   5.948309   4.374057   2.065619   2.164914
    21  O    2.445517   1.715764   2.549145   3.629165   3.791633
    22  C    3.166885   2.744861   3.690049   4.255848   4.407448
    23  H    4.163299   2.796314   4.383756   5.290051   5.453716
    24  H    3.024901   3.534737   4.390221   4.487964   4.145034
    25  C    3.648059   3.662493   3.693221   3.810956   4.624868
    26  O    2.908437   3.883642   2.936396   2.464941   3.631458
    27  H    4.288181   4.674903   4.731381   4.437802   5.112640
    28  H    4.477888   3.655855   3.794722   4.369010   5.496091
                   16         17         18         19         20
    16  H    0.000000
    17  H    1.780707   0.000000
    18  C    2.196888   2.165958   0.000000
    19  H    2.691017   2.396852   1.105055   0.000000
    20  H    2.399587   3.050647   1.111183   1.782127   0.000000
    21  O    4.398054   4.378160   4.227587   5.274487   4.439188
    22  C    4.788197   5.214489   4.690822   5.792186   4.570510
    23  H    5.807950   6.211061   5.786866   6.886039   5.664210
    24  H    4.272826   5.038222   4.593204   5.687665   4.335626
    25  C    5.092389   5.514036   4.392537   5.441755   4.108984
    26  O    4.247770   4.483998   3.135328   4.138460   2.964247
    27  H    5.394677   6.105253   4.795298   5.812269   4.260713
    28  H    6.072395   6.295340   5.178723   6.179789   4.986912
                   21         22         23         24         25
    21  O    0.000000
    22  C    1.372464   0.000000
    23  H    2.053146   1.102249   0.000000
    24  H    2.058978   1.108977   1.783037   0.000000
    25  C    2.311103   1.529665   2.185907   2.165966   0.000000
    26  O    2.448111   2.342928   3.283964   2.791579   1.385716
    27  H    3.259489   2.192574   2.688097   2.402330   1.102623
    28  H    2.756062   2.161903   2.393315   3.049517   1.103565
                   26         27         28
    26  O    0.000000
    27  H    2.050450   0.000000
    28  H    2.056767   1.779650   0.000000
 Symmetry turned off by external request.
 Stoichiometry    C6H14O7Si(2-)
 Framework group  C1[X(C6H14O7Si)]
 Deg. of freedom    78
 Full point group                 C1      NOp   1
 Rotational constants (GHZ):           0.9653378           0.4000347           0.3693727
 Standard basis: def2TZVPP (5D, 7F)
   641 basis functions,   970 primitive gaussians,   726 cartesian basis functions
    61 alpha electrons       61 beta electrons
       nuclear repulsion energy      1201.4664463419 Hartrees.
 NAtoms=   28 NActive=   28 NUniq=   28 SFac= 1.00D+00 NAtFMM=   60 NAOKFM=F Big=F
 Integral buffers will be    131072 words long.
 Raffenetti 2 integral format.
 Two-electron integral symmetry is turned off.
 Nuclear repulsion after empirical dispersion term =     1201.4483258145 Hartrees.
 One-electron integrals computed using PRISM.
   1 Symmetry operations used in ECPInt.
 ECPInt:  NShTT=   29161 NPrTT=   80163 LenC2=   26408 LenP2D=   54458.
 LDataN:  DoStor=T MaxTD1= 6 Len=  172
 NBasis=   641 RedAO= T EigKep=  2.06D-04  NBF=   641
 NBsUse=   641 1.00D-06 EigRej= -1.00D+00 NBFU=   641
 ExpMin= 7.01D-02 ExpMax= 4.48D+04 ExpMxC= 1.53D+03 IAcc=3 IRadAn=         5 AccDes= 0.00D+00
 Harris functional with IExCor= 4639 and IRadAn=       5 diagonalized for initial guess.
 HarFok:  IExCor= 4639 AccDes= 0.00D+00 IRadAn=         5 IDoV= 1 UseB2=F ITyADJ=14
 ICtDFT=  3500011 ScaDFX=  1.000000  1.000000  1.000000  1.000000
 FoFCou: FMM=F IPFlag=           0 FMFlag=      100000 FMFlg1=           0
         NFxFlg=           0 DoJE=T BraDBF=F KetDBF=T FulRan=T
         wScrn=  0.000000 ICntrl=       500 IOpCl=  0 I1Cent=   200000004 NGrid=           0
         NMat0=    1 NMatS0=      1 NMatT0=    0 NMatD0=    1 NMtDS0=    0 NMtDT0=    0
 Symmetry not used in FoFCou.
 Requested convergence on RMS density matrix=1.00D-08 within 128 cycles.
 Requested convergence on MAX density matrix=1.00D-06.
 Requested convergence on             energy=1.00D-06.
 No special actions if energy rises.
 Integral accuracy reduced to 1.0D-05 until final iterations.
 Initial convergence to 1.0D-05 achieved.  Increase integral accuracy.
 SCF Done:  E(RwB97XD) =  -1053.27378101     A.U. after   15 cycles
            NFock= 15  Conv=0.61D-08     -V/T= 2.0036
 DoSCS=F DFT=T ScalE2(SS,OS)=  1.000000  1.000000
 Range of M.O.s used for correlation:     1   641
 NBasis=   641 NAE=    61 NBE=    61 NFC=     0 NFV=     0
 NROrb=    641 NOA=    61 NOB=    61 NVA=   580 NVB=   580

 **** Warning!!: The largest alpha MO coefficient is  0.14446228D+02

   1 Symmetry operations used in ECPInt.
 ECPInt:  NShTT=   29161 NPrTT=   80163 LenC2=   26408 LenP2D=   54458.
 LDataN:  DoStor=T MaxTD1= 7 Len=  274
 Number of processors reduced to   2 by ecpmxn.
 Symmetrizing basis deriv contribution to polar:
 IMax=3 JMax=2 DiffMx= 0.00D+00
 G2DrvN: will do    29 centers at a time, making    1 passes.
 Calling FoFCou, ICntrl=  3107 FMM=F I1Cent=   0 AccDes= 0.00D+00.
 End of G2Drv F.D. properties file   721 does not exist.
 End of G2Drv F.D. properties file   722 does not exist.
 End of G2Drv F.D. properties file   788 does not exist.
          IDoAtm=1111111111111111111111111111
          Differentiating once with respect to nuclear coordinates.
 CalDSu exits because no D1Ps are significant.
          There are    87 degrees of freedom in the 1st order CPHF.  IDoFFX=6 NUNeed=     0.
     81 vectors produced by pass  0 Test12= 4.07D-14 1.15D-09 XBig12= 8.94D-02 7.50D-02.
 AX will form    44 AO Fock derivatives at one time.
     81 vectors produced by pass  1 Test12= 4.07D-14 1.15D-09 XBig12= 1.93D-02 1.17D-02.
     81 vectors produced by pass  2 Test12= 4.07D-14 1.15D-09 XBig12= 4.60D-04 3.37D-03.
     81 vectors produced by pass  3 Test12= 4.07D-14 1.15D-09 XBig12= 6.32D-06 3.86D-04.
     81 vectors produced by pass  4 Test12= 4.07D-14 1.15D-09 XBig12= 6.21D-08 3.06D-05.
     81 vectors produced by pass  5 Test12= 4.07D-14 1.15D-09 XBig12= 5.77D-10 1.88D-06.
     81 vectors produced by pass  6 Test12= 4.07D-14 1.15D-09 XBig12= 4.22D-12 1.73D-07.
     42 vectors produced by pass  7 Test12= 4.07D-14 1.15D-09 XBig12= 3.30D-14 1.85D-08.
      6 vectors produced by pass  8 Test12= 4.07D-14 1.15D-09 XBig12= 1.55D-15 2.65D-09.
      2 vectors produced by pass  9 Test12= 4.07D-14 1.15D-09 XBig12= 2.27D-15 2.53D-09.
 InvSVY:  IOpt=1 It=  1 EMax= 3.33D-16
 Solved reduced A of dimension   617 with    87 vectors.
 End of Minotr F.D. properties file   721 does not exist.
 End of Minotr F.D. properties file   722 does not exist.
 End of Minotr F.D. properties file   788 does not exist.

 **********************************************************************

            Population analysis using the SCF Density.

 **********************************************************************

 Alpha  occ. eigenvalues --  -65.99067 -18.95477 -18.94780 -18.94741 -18.93133
 Alpha  occ. eigenvalues --  -18.92332 -18.86551 -18.86395 -10.06938 -10.06820
 Alpha  occ. eigenvalues --  -10.06460 -10.06396 -10.05654 -10.04651  -5.10170
 Alpha  occ. eigenvalues --   -3.44823  -3.44699  -3.44543  -0.85867  -0.83833
 Alpha  occ. eigenvalues --   -0.83231  -0.79363  -0.77973  -0.69418  -0.68534
 Alpha  occ. eigenvalues --   -0.55930  -0.54304  -0.54174  -0.43580  -0.42765
 Alpha  occ. eigenvalues --   -0.42321  -0.33716  -0.32094  -0.31448  -0.31141
 Alpha  occ. eigenvalues --   -0.29911  -0.29388  -0.27173  -0.25421  -0.25017
 Alpha  occ. eigenvalues --   -0.23915  -0.22341  -0.22114  -0.21617  -0.19979
 Alpha  occ. eigenvalues --   -0.17333  -0.14756  -0.13570  -0.12094  -0.11583
 Alpha  occ. eigenvalues --   -0.11102  -0.10121  -0.09148  -0.08585  -0.07890
 Alpha  occ. eigenvalues --   -0.06483  -0.05661  -0.05274  -0.03129  -0.02059
 Alpha  occ. eigenvalues --   -0.00390
 Alpha virt. eigenvalues --    0.33971   0.35136   0.37367   0.37810   0.38245
 Alpha virt. eigenvalues --    0.38586   0.38966   0.39308   0.40544   0.41818
 Alpha virt. eigenvalues --    0.42602   0.43599   0.43688   0.44367   0.45792
 Alpha virt. eigenvalues --    0.47142   0.47814   0.48630   0.49340   0.49449
 Alpha virt. eigenvalues --    0.50330   0.51377   0.52475   0.53899   0.54457
 Alpha virt. eigenvalues --    0.55202   0.56424   0.57873   0.58510   0.59272
 Alpha virt. eigenvalues --    0.61314   0.62260   0.62596   0.63911   0.64399
 Alpha virt. eigenvalues --    0.65032   0.66193   0.66800   0.67942   0.68009
 Alpha virt. eigenvalues --    0.68898   0.70179   0.70524   0.70937   0.71412
 Alpha virt. eigenvalues --    0.71859   0.72333   0.73326   0.73539   0.73979
 Alpha virt. eigenvalues --    0.74236   0.74918   0.75246   0.76243   0.76567
 Alpha virt. eigenvalues --    0.76887   0.77728   0.77854   0.78078   0.79225
 Alpha virt. eigenvalues --    0.79741   0.81337   0.81629   0.82434   0.83196
 Alpha virt. eigenvalues --    0.84256   0.84950   0.85538   0.86603   0.86924
 Alpha virt. eigenvalues --    0.87888   0.89447   0.90140   0.91003   0.92047
 Alpha virt. eigenvalues --    0.93069   0.94181   0.95350   0.95794   0.96962
 Alpha virt. eigenvalues --    0.97902   0.98883   1.00985   1.01096   1.02625
 Alpha virt. eigenvalues --    1.05440   1.06176   1.06621   1.07088   1.07770
 Alpha virt. eigenvalues --    1.08723   1.08876   1.10991   1.11544   1.12377
 Alpha virt. eigenvalues --    1.13325   1.13708   1.14579   1.16116   1.16363
 Alpha virt. eigenvalues --    1.17293   1.18848   1.19507   1.20081   1.21404
 Alpha virt. eigenvalues --    1.22572   1.23136   1.23645   1.24196   1.24493
 Alpha virt. eigenvalues --    1.26594   1.27706   1.28924   1.29583   1.30724
 Alpha virt. eigenvalues --    1.31301   1.31966   1.33183   1.33647   1.34054
 Alpha virt. eigenvalues --    1.34492   1.35613   1.36877   1.37658   1.38120
 Alpha virt. eigenvalues --    1.39009   1.39603   1.41104   1.41862   1.42330
 Alpha virt. eigenvalues --    1.42577   1.43909   1.44263   1.45629   1.47056
 Alpha virt. eigenvalues --    1.47156   1.48326   1.49317   1.50439   1.51200
 Alpha virt. eigenvalues --    1.52613   1.53080   1.54193   1.55214   1.55827
 Alpha virt. eigenvalues --    1.56765   1.57542   1.58398   1.59861   1.60713
 Alpha virt. eigenvalues --    1.61538   1.62765   1.62979   1.65006   1.65607
 Alpha virt. eigenvalues --    1.66225   1.67417   1.67659   1.68862   1.69983
 Alpha virt. eigenvalues --    1.70353   1.70737   1.71226   1.74024   1.74601
 Alpha virt. eigenvalues --    1.75023   1.75829   1.76344   1.77887   1.78430
 Alpha virt. eigenvalues --    1.79635   1.81262   1.83393   1.84001   1.84846
 Alpha virt. eigenvalues --    1.86088   1.86918   1.87324   1.88228   1.89465
 Alpha virt. eigenvalues --    1.91014   1.92071   1.92974   1.93198   1.93839
 Alpha virt. eigenvalues --    1.97186   1.98951   1.99933   2.01943   2.03645
 Alpha virt. eigenvalues --    2.03837   2.05605   2.07027   2.11176   2.12694
 Alpha virt. eigenvalues --    2.14176   2.14673   2.15679   2.17120   2.18895
 Alpha virt. eigenvalues --    2.22128   2.23320   2.24363   2.25400   2.26219
 Alpha virt. eigenvalues --    2.27798   2.30969   2.31475   2.32408   2.34308
 Alpha virt. eigenvalues --    2.34872   2.35957   2.37623   2.37679   2.39325
 Alpha virt. eigenvalues --    2.40519   2.40893   2.43032   2.43756   2.44919
 Alpha virt. eigenvalues --    2.46631   2.47715   2.49735   2.51217   2.52704
 Alpha virt. eigenvalues --    2.54978   2.55921   2.57525   2.59250   2.60560
 Alpha virt. eigenvalues --    2.61492   2.63087   2.64382   2.67253   2.67587
 Alpha virt. eigenvalues --    2.69089   2.70979   2.71959   2.75604   2.77635
 Alpha virt. eigenvalues --    2.78378   2.79050   2.79899   2.82346   2.86694
 Alpha virt. eigenvalues --    2.87529   2.89306   2.92712   2.93121   2.95592
 Alpha virt. eigenvalues --    2.96415   2.96682   2.97638   2.98677   2.99320
 Alpha virt. eigenvalues --    3.00217   3.01415   3.02730   3.05454   3.06994
 Alpha virt. eigenvalues --    3.07763   3.09102   3.10122   3.11392   3.12084
 Alpha virt. eigenvalues --    3.12951   3.14457   3.15180   3.15974   3.16487
 Alpha virt. eigenvalues --    3.17952   3.19219   3.19515   3.20029   3.21725
 Alpha virt. eigenvalues --    3.22496   3.26482   3.26884   3.28443   3.30060
 Alpha virt. eigenvalues --    3.30267   3.31842   3.32214   3.33568   3.33807
 Alpha virt. eigenvalues --    3.34499   3.35120   3.37052   3.38295   3.38485
 Alpha virt. eigenvalues --    3.40453   3.41041   3.42287   3.42457   3.42860
 Alpha virt. eigenvalues --    3.44440   3.45308   3.46847   3.47629   3.47669
 Alpha virt. eigenvalues --    3.48401   3.48627   3.49386   3.50968   3.52378
 Alpha virt. eigenvalues --    3.54146   3.55069   3.55746   3.56549   3.57134
 Alpha virt. eigenvalues --    3.57576   3.59565   3.61369   3.61963   3.63585
 Alpha virt. eigenvalues --    3.64936   3.66267   3.66864   3.68577   3.69895
 Alpha virt. eigenvalues --    3.73006   3.73154   3.74113   3.74153   3.75152
 Alpha virt. eigenvalues --    3.76669   3.78183   3.79339   3.80017   3.81587
 Alpha virt. eigenvalues --    3.82916   3.83836   3.85928   3.87565   3.88081
 Alpha virt. eigenvalues --    3.88753   3.90043   3.90567   3.92828   3.94491
 Alpha virt. eigenvalues --    3.96156   3.96655   3.97863   3.98382   3.99444
 Alpha virt. eigenvalues --    4.00262   4.01441   4.02235   4.03255   4.03538
 Alpha virt. eigenvalues --    4.04447   4.06322   4.07392   4.07661   4.08780
 Alpha virt. eigenvalues --    4.09855   4.10325   4.11179   4.12052   4.13486
 Alpha virt. eigenvalues --    4.14317   4.15850   4.16965   4.17619   4.18227
 Alpha virt. eigenvalues --    4.18849   4.21077   4.22735   4.24001   4.26431
 Alpha virt. eigenvalues --    4.27381   4.29447   4.29915   4.30320   4.30984
 Alpha virt. eigenvalues --    4.32010   4.33222   4.34159   4.36349   4.36683
 Alpha virt. eigenvalues --    4.37387   4.37936   4.40581   4.43688   4.44591
 Alpha virt. eigenvalues --    4.45378   4.47195   4.47344   4.48496   4.49142
 Alpha virt. eigenvalues --    4.50232   4.50471   4.51802   4.52774   4.53693
 Alpha virt. eigenvalues --    4.54619   4.56832   4.57647   4.58995   4.59357
 Alpha virt. eigenvalues --    4.60197   4.61412   4.61932   4.62391   4.67213
 Alpha virt. eigenvalues --    4.68050   4.68198   4.69969   4.70683   4.72403
 Alpha virt. eigenvalues --    4.74941   4.75808   4.76341   4.81424   4.82538
 Alpha virt. eigenvalues --    4.84714   4.87368   4.89235   4.90920   4.91964
 Alpha virt. eigenvalues --    4.92403   4.94530   4.95433   4.99194   4.99506
 Alpha virt. eigenvalues --    5.01015   5.02617   5.03996   5.07336   5.08402
 Alpha virt. eigenvalues --    5.10516   5.11195   5.12644   5.13076   5.14340
 Alpha virt. eigenvalues --    5.15671   5.16910   5.18154   5.19401   5.20269
 Alpha virt. eigenvalues --    5.21168   5.24432   5.24610   5.25448   5.26809
 Alpha virt. eigenvalues --    5.27804   5.29754   5.31996   5.34523   5.35769
 Alpha virt. eigenvalues --    5.36753   5.37604   5.39001   5.40937   5.41250
 Alpha virt. eigenvalues --    5.44632   5.45294   5.48695   5.50043   5.52924
 Alpha virt. eigenvalues --    5.55221   5.56220   5.58958   5.61503   5.61924
 Alpha virt. eigenvalues --    5.62756   5.64179   5.65362   5.67649   5.68440
 Alpha virt. eigenvalues --    5.69948   5.70250   5.71299   5.75355   5.76383
 Alpha virt. eigenvalues --    5.76623   5.77044   5.77431   5.79484   5.80713
 Alpha virt. eigenvalues --    5.82388   5.83009   5.83095   5.85180   5.85214
 Alpha virt. eigenvalues --    5.88157   5.88952   5.91405   5.92038   5.93038
 Alpha virt. eigenvalues --    5.93576   5.94945   5.95521   5.97111   5.97721
 Alpha virt. eigenvalues --    5.99315   6.00199   6.01142   6.04046   6.07702
 Alpha virt. eigenvalues --    6.08244   6.09065   6.09832   6.15773   6.15929
 Alpha virt. eigenvalues --    6.24135   6.26429   6.33474   6.35745   6.38902
 Alpha virt. eigenvalues --    6.42324   6.42567   6.45716   6.46002   6.46539
 Alpha virt. eigenvalues --    6.47170   6.50652   6.51819   6.54515   6.59109
 Alpha virt. eigenvalues --    6.61197   6.67919   6.83618   6.88048   6.93221
 Alpha virt. eigenvalues --    6.96156   6.96384   6.99074   7.00725   7.01757
 Alpha virt. eigenvalues --    7.04512   7.05247   7.06461   7.09103   7.09705
 Alpha virt. eigenvalues --    7.11089   7.11916   7.12262   7.13664   7.16615
 Alpha virt. eigenvalues --    7.19513   7.21371   7.28321   7.29489   7.31717
 Alpha virt. eigenvalues --    7.33198   7.34209   7.35124   7.39688   7.41034
 Alpha virt. eigenvalues --    7.45344   7.47887   7.50186   7.53258   7.59490
 Alpha virt. eigenvalues --    7.60562   7.65725   7.71623   7.72810   7.76726
 Alpha virt. eigenvalues --    7.83366   7.84603   7.88467   7.90368   8.03658
 Alpha virt. eigenvalues --    8.07159  12.71903  23.62555  23.65530  23.71128
 Alpha virt. eigenvalues --   23.78060  23.79105  23.85297  44.04811  44.32132
 Alpha virt. eigenvalues --   44.46651  44.50900  44.57821  44.62096  44.73326
          Condensed to atoms (all electrons):
               1          2          3          4          5          6
     1  C    5.018122   0.370445   0.240641   0.077550  -0.035719   0.004456
     2  H    0.370445   0.743618  -0.049977  -0.064064   0.009142   0.006266
     3  H    0.240641  -0.049977   0.754045   0.040587  -0.007760  -0.004543
     4  C    0.077550  -0.064064   0.040587   5.146814   0.396132   0.371757
     5  H   -0.035719   0.009142  -0.007760   0.396132   0.562616  -0.004986
     6  H    0.004456   0.006266  -0.004543   0.371757  -0.004986   0.574816
     7  O    0.287654  -0.047972  -0.028110  -0.072895   0.003885   0.005925
     8  O    0.006314   0.009842   0.020811  -0.002058   0.011418  -0.014723
     9  H    0.003491   0.000074  -0.004789  -0.041744   0.005885   0.004572
    10  Si   0.008518  -0.010097   0.001564  -0.020073  -0.021866  -0.000075
    11  O   -0.000289  -0.000074  -0.000012  -0.000325   0.000088   0.000000
    12  H   -0.061041  -0.005036   0.008239   0.011623   0.003090  -0.000599
    13  O   -0.003115   0.005309   0.004157   0.045387  -0.031396  -0.030525
    14  O    0.000246  -0.000141   0.000005   0.000540  -0.000103  -0.000184
    15  C    0.000154  -0.000048   0.000004  -0.000002  -0.000139  -0.000002
    16  H   -0.000003  -0.000007  -0.000000   0.000003  -0.000003  -0.000001
    17  H    0.000025   0.000022   0.000001   0.000051   0.000012   0.000003
    18  C   -0.000022  -0.000104  -0.000001  -0.000253  -0.000048   0.000020
    19  H   -0.000002   0.000002   0.000000   0.000017  -0.000002  -0.000002
    20  H    0.000006  -0.000005   0.000000   0.000030   0.000002  -0.000001
    21  O   -0.009010   0.001538  -0.000592   0.006233   0.007826   0.001030
    22  C    0.002141   0.000655  -0.000205  -0.007116   0.003621   0.000560
    23  H    0.000305   0.000030   0.000022   0.000394   0.000114   0.000007
    24  H   -0.000199   0.000024  -0.000005   0.000356   0.000213   0.000021
    25  C   -0.002238   0.000013   0.000242   0.007795  -0.003787  -0.000601
    26  O   -0.000692   0.000104  -0.000015  -0.004570   0.004761  -0.000156
    27  H   -0.000080   0.000004   0.000002  -0.000038   0.000410   0.000000
    28  H   -0.000068  -0.000042  -0.000020   0.003330  -0.002632   0.000294
               7          8          9         10         11         12
     1  C    0.287654   0.006314   0.003491   0.008518  -0.000289  -0.061041
     2  H   -0.047972   0.009842   0.000074  -0.010097  -0.000074  -0.005036
     3  H   -0.028110   0.020811  -0.004789   0.001564  -0.000012   0.008239
     4  C   -0.072895  -0.002058  -0.041744  -0.020073  -0.000325   0.011623
     5  H    0.003885   0.011418   0.005885  -0.021866   0.000088   0.003090
     6  H    0.005925  -0.014723   0.004572  -0.000075   0.000000  -0.000599
     7  O    8.028213  -0.002508   0.004954   0.006062  -0.000080   0.352212
     8  O   -0.002508   8.440629   0.277178  -0.000511   0.000000  -0.001883
     9  H    0.004954   0.277178   0.649011  -0.000686  -0.000000   0.000399
    10  Si   0.006062  -0.000511  -0.000686  11.587718   0.347809  -0.006916
    11  O   -0.000080   0.000000  -0.000000   0.347809   8.033668   0.000656
    12  H    0.352212  -0.001883   0.000399  -0.006916   0.000656   0.395368
    13  O   -0.003431   0.006242  -0.001315   0.584478  -0.020064  -0.003928
    14  O   -0.000006   0.000000  -0.000000   0.374335  -0.035795  -0.000049
    15  C   -0.000009  -0.000001   0.000000  -0.067434   0.373909  -0.000065
    16  H    0.000000   0.000000  -0.000000  -0.002851  -0.050713  -0.000005
    17  H   -0.000003  -0.000000   0.000000   0.014312  -0.060042   0.000030
    18  C    0.000015  -0.000000   0.000000  -0.071161  -0.102372  -0.000032
    19  H    0.000000   0.000000  -0.000000   0.002605   0.006075  -0.000004
    20  H   -0.000000   0.000000  -0.000000   0.011167   0.008235   0.000010
    21  O   -0.041132  -0.000014  -0.000012   0.253776  -0.042876   0.073734
    22  C    0.006446   0.000135   0.000098  -0.035350   0.003383  -0.005916
    23  H    0.002784  -0.000011   0.000008   0.008366  -0.000448  -0.007641
    24  H   -0.000285   0.000000   0.000001  -0.016529   0.008496   0.001079
    25  C   -0.003320  -0.000603  -0.000033  -0.045251  -0.003162   0.006128
    26  O    0.000009   0.000019  -0.000002   0.343643  -0.019377   0.000904
    27  H    0.000002  -0.000005   0.000001  -0.003697   0.000431  -0.000014
    28  H    0.000195   0.000100   0.000111  -0.006786  -0.000408  -0.000357
              13         14         15         16         17         18
     1  C   -0.003115   0.000246   0.000154  -0.000003   0.000025  -0.000022
     2  H    0.005309  -0.000141  -0.000048  -0.000007   0.000022  -0.000104
     3  H    0.004157   0.000005   0.000004  -0.000000   0.000001  -0.000001
     4  C    0.045387   0.000540  -0.000002   0.000003   0.000051  -0.000253
     5  H   -0.031396  -0.000103  -0.000139  -0.000003   0.000012  -0.000048
     6  H   -0.030525  -0.000184  -0.000002  -0.000001   0.000003   0.000020
     7  O   -0.003431  -0.000006  -0.000009   0.000000  -0.000003   0.000015
     8  O    0.006242   0.000000  -0.000001   0.000000  -0.000000  -0.000000
     9  H   -0.001315  -0.000000   0.000000  -0.000000   0.000000   0.000000
    10  Si   0.584478   0.374335  -0.067434  -0.002851   0.014312  -0.071161
    11  O   -0.020064  -0.035795   0.373909  -0.050713  -0.060042  -0.102372
    12  H   -0.003928  -0.000049  -0.000065  -0.000005   0.000030  -0.000032
    13  O    8.196634  -0.035618  -0.000863  -0.000235   0.000974   0.001507
    14  O   -0.035618   8.086116  -0.119329   0.008723   0.014505   0.376017
    15  C   -0.000863  -0.119329   4.807606   0.323883   0.372332   0.321854
    16  H   -0.000235   0.008723   0.323883   0.865293  -0.102696  -0.011758
    17  H    0.000974   0.014505   0.372332  -0.102696   0.839989  -0.069042
    18  C    0.001507   0.376017   0.321854  -0.011758  -0.069042   4.768948
    19  H    0.000057  -0.052254  -0.015908   0.012946  -0.022363   0.333548
    20  H   -0.000455  -0.060323  -0.090706  -0.015018   0.023598   0.349322
    21  O   -0.052874   0.000412   0.002962  -0.000015  -0.000180  -0.000305
    22  C   -0.001431  -0.000510   0.001210  -0.000165   0.000214  -0.001444
    23  H   -0.000536   0.000000   0.000063  -0.000027   0.000003  -0.000012
    24  H   -0.000550   0.000071  -0.000417  -0.000332   0.000125  -0.000300
    25  C   -0.004233   0.000969  -0.000467   0.000382  -0.000078  -0.000471
    26  O   -0.023245  -0.046043  -0.004701   0.000217  -0.000264  -0.006965
    27  H   -0.000379  -0.000044   0.000342  -0.000030   0.000011   0.000200
    28  H    0.000452  -0.000321  -0.000176   0.000003  -0.000007  -0.000078
              19         20         21         22         23         24
     1  C   -0.000002   0.000006  -0.009010   0.002141   0.000305  -0.000199
     2  H    0.000002  -0.000005   0.001538   0.000655   0.000030   0.000024
     3  H    0.000000   0.000000  -0.000592  -0.000205   0.000022  -0.000005
     4  C    0.000017   0.000030   0.006233  -0.007116   0.000394   0.000356
     5  H   -0.000002   0.000002   0.007826   0.003621   0.000114   0.000213
     6  H   -0.000002  -0.000001   0.001030   0.000560   0.000007   0.000021
     7  O    0.000000  -0.000000  -0.041132   0.006446   0.002784  -0.000285
     8  O    0.000000   0.000000  -0.000014   0.000135  -0.000011   0.000000
     9  H   -0.000000  -0.000000  -0.000012   0.000098   0.000008   0.000001
    10  Si   0.002605   0.011167   0.253776  -0.035350   0.008366  -0.016529
    11  O    0.006075   0.008235  -0.042876   0.003383  -0.000448   0.008496
    12  H   -0.000004   0.000010   0.073734  -0.005916  -0.007641   0.001079
    13  O    0.000057  -0.000455  -0.052874  -0.001431  -0.000536  -0.000550
    14  O   -0.052254  -0.060323   0.000412  -0.000510   0.000000   0.000071
    15  C   -0.015908  -0.090706   0.002962   0.001210   0.000063  -0.000417
    16  H    0.012946  -0.015018  -0.000015  -0.000165  -0.000027  -0.000332
    17  H   -0.022363   0.023598  -0.000180   0.000214   0.000003   0.000125
    18  C    0.333548   0.349322  -0.000305  -0.001444  -0.000012  -0.000300
    19  H    0.869529  -0.108703  -0.000007  -0.000053  -0.000001  -0.000004
    20  H   -0.108703   0.902333   0.000335   0.000593  -0.000000   0.000465
    21  O   -0.000007   0.000335   8.184955   0.340518  -0.053404  -0.048744
    22  C   -0.000053   0.000593   0.340518   4.763055   0.372280   0.368957
    23  H   -0.000001  -0.000000  -0.053404   0.372280   0.798801  -0.088045
    24  H   -0.000004   0.000465  -0.048744   0.368957  -0.088045   0.855322
    25  C    0.000028   0.000421  -0.098970   0.275162  -0.031252  -0.079045
    26  O   -0.000655   0.011464  -0.025022  -0.095732   0.006424   0.009313
    27  H   -0.000028  -0.000041   0.007450  -0.014866   0.009977  -0.011259
    28  H    0.000003   0.000100   0.011343  -0.065946  -0.015678   0.019303
              25         26         27         28
     1  C   -0.002238  -0.000692  -0.000080  -0.000068
     2  H    0.000013   0.000104   0.000004  -0.000042
     3  H    0.000242  -0.000015   0.000002  -0.000020
     4  C    0.007795  -0.004570  -0.000038   0.003330
     5  H   -0.003787   0.004761   0.000410  -0.002632
     6  H   -0.000601  -0.000156   0.000000   0.000294
     7  O   -0.003320   0.000009   0.000002   0.000195
     8  O   -0.000603   0.000019  -0.000005   0.000100
     9  H   -0.000033  -0.000002   0.000001   0.000111
    10  Si  -0.045251   0.343643  -0.003697  -0.006786
    11  O   -0.003162  -0.019377   0.000431  -0.000408
    12  H    0.006128   0.000904  -0.000014  -0.000357
    13  O   -0.004233  -0.023245  -0.000379   0.000452
    14  O    0.000969  -0.046043  -0.000044  -0.000321
    15  C   -0.000467  -0.004701   0.000342  -0.000176
    16  H    0.000382   0.000217  -0.000030   0.000003
    17  H   -0.000078  -0.000264   0.000011  -0.000007
    18  C   -0.000471  -0.006965   0.000200  -0.000078
    19  H    0.000028  -0.000655  -0.000028   0.000003
    20  H    0.000421   0.011464  -0.000041   0.000100
    21  O   -0.098970  -0.025022   0.007450   0.011343
    22  C    0.275162  -0.095732  -0.014866  -0.065946
    23  H   -0.031252   0.006424   0.009977  -0.015678
    24  H   -0.079045   0.009313  -0.011259   0.019303
    25  C    4.805628   0.354937   0.341707   0.402731
    26  O    0.354937   8.041095  -0.049542  -0.056026
    27  H    0.341707  -0.049542   0.824623  -0.086298
    28  H    0.402731  -0.056026  -0.086298   0.786707
 Mulliken charges:
               1
     1  C    0.092410
     2  H    0.030479
     3  H    0.025711
     4  C    0.104539
     5  H    0.099226
     6  H    0.086672
     7  O   -0.498603
     8  O   -0.750370
     9  H    0.102800
    10  Si   0.764932
    11  O   -0.446715
    12  H    0.240015
    13  O   -0.631004
    14  O   -0.511220
    15  C    0.095951
    16  H   -0.027592
    17  H   -0.011531
    18  C    0.112938
    19  H   -0.024825
    20  H   -0.032831
    21  O   -0.518953
    22  C    0.089710
    23  H   -0.002522
    24  H   -0.018033
    25  C    0.077372
    26  O   -0.439882
    27  H   -0.018840
    28  H    0.010169
 Sum of Mulliken charges =  -2.00000
 Mulliken charges with hydrogens summed into heavy atoms:
               1
     1  C    0.148599
     4  C    0.290438
     7  O   -0.258588
     8  O   -0.647570
    10  Si   0.764932
    11  O   -0.446715
    13  O   -0.631004
    14  O   -0.511220
    15  C    0.056827
    18  C    0.055281
    21  O   -0.518953
    22  C    0.069155
    25  C    0.068701
    26  O   -0.439882
 APT charges:
               1
     1  C   -0.582136
     2  H    0.161184
     3  H    0.546563
     4  C   -0.280174
     5  H   -0.000410
     6  H    0.419404
     7  O   -0.143280
     8  O   -0.737202
     9  H    0.081027
    10  Si   0.303603
    11  O   -0.416368
    12  H   -0.050984
    13  O   -0.505387
    14  O   -0.415865
    15  C   -0.602321
    16  H    0.427579
    17  H    0.321797
    18  C   -0.576913
    19  H    0.460133
    20  H    0.259817
    21  O   -0.480288
    22  C   -0.575136
    23  H    0.346410
    24  H    0.309908
    25  C   -0.593557
    26  O   -0.373016
    27  H    0.452277
    28  H    0.243334
 Sum of APT charges =  -2.00000
 APT charges with hydrogens summed into heavy atoms:
               1
     1  C    0.125611
     4  C    0.138820
     7  O   -0.194264
     8  O   -0.656174
    10  Si   0.303603
    11  O   -0.416368
    13  O   -0.505387
    14  O   -0.415865
    15  C    0.147055
    18  C    0.143037
    21  O   -0.480288
    22  C    0.081183
    25  C    0.102053
    26  O   -0.373016
 Electronic spatial extent (au):  <R**2>=           3426.0845
 Charge=             -2.0000 electrons
 Dipole moment (field-independent basis, Debye):
    X=             -7.6182    Y=              3.3492    Z=              2.5882  Tot=              8.7151
 Quadrupole moment (field-independent basis, Debye-Ang):
   XX=           -173.5007   YY=           -108.9774   ZZ=           -120.3369
   XY=              5.5573   XZ=              7.8016   YZ=             -5.6662
 Traceless Quadrupole moment (field-independent basis, Debye-Ang):
   XX=            -39.2291   YY=             25.2943   ZZ=             13.9348
   XY=              5.5573   XZ=              7.8016   YZ=             -5.6662
 Octapole moment (field-independent basis, Debye-Ang**2):
  XXX=           -208.9951  YYY=             -2.9991  ZZZ=              2.8112  XYY=              8.0972
  XXY=             48.1199  XXZ=             63.7187  XZZ=            -24.5374  YZZ=             -0.7549
  YYZ=              6.8036  XYZ=            -12.5881
 Hexadecapole moment (field-independent basis, Debye-Ang**3):
 XXXX=          -4241.0067 YYYY=          -1086.6815 ZZZZ=           -711.5792 XXXY=            154.6044
 XXXZ=            310.9555 YYYX=             -1.5383 YYYZ=              4.6473 ZZZX=             20.7609
 ZZZY=              2.8408 XXYY=           -712.5851 XXZZ=           -821.3094 YYZZ=           -296.3453
 XXYZ=            -63.0492 YYXZ=             -2.8724 ZZXY=              4.5670
 N-N= 1.201448325815D+03 E-N=-4.926387227806D+03  KE= 1.049450178219D+03
  Exact polarizability:       0.000       0.000       0.000       0.000       0.000       0.000
 Approx polarizability:     166.133       4.270     140.412      -7.013      -0.254     129.442
   1 Symmetry operations used in ECPInt.
 ECPInt:  NShTT=   29161 NPrTT=   80163 LenC2=   26408 LenP2D=   54458.
 LDataN:  DoStor=T MaxTD1= 8 Len=  415
 Calling FoFJK, ICntrl=    100127 FMM=F ISym2X=0 I1Cent= 0 IOpClX= 0 NMat=1 NMatS=1 NMatT=0.
 -------------------------------------------------------------------
 Center     Atomic                   Forces (Hartrees/Bohr)
 Number     Number              X              Y              Z
 -------------------------------------------------------------------
      1        6          -0.000000190    0.000000334    0.000001447
      2        1          -0.000001144   -0.000000498    0.000001432
      3        1          -0.000000788   -0.000000148    0.000002234
      4        6           0.000000495    0.000000073    0.000002063
      5        1           0.000000598   -0.000000003    0.000001534
      6        1           0.000000876    0.000000376    0.000001000
      7        8          -0.000000742   -0.000000216    0.000001748
      8        8           0.000000654   -0.000000010    0.000002835
      9        1           0.000000679    0.000000453    0.000003175
     10       14           0.000000513   -0.000000795    0.000000352
     11        8          -0.000000784   -0.000000214   -0.000001277
     12        1          -0.000001170   -0.000000980    0.000000856
     13        8           0.000000190    0.000000483    0.000000017
     14        8           0.000000746    0.000000809   -0.000001420
     15        6          -0.000000987    0.000000641   -0.000002459
     16        1          -0.000000753   -0.000000483   -0.000002838
     17        1          -0.000000829   -0.000000650   -0.000002279
     18        6           0.000000528    0.000000388   -0.000002522
     19        1           0.000000478   -0.000000085   -0.000003228
     20        1           0.000000924   -0.000000083   -0.000002596
     21        8          -0.000001222   -0.000000177   -0.000000506
     22        6          -0.000000694   -0.000000661    0.000000566
     23        1          -0.000000294    0.000000069    0.000000994
     24        1          -0.000000720   -0.000000199   -0.000000411
     25        6           0.000000825    0.000001266   -0.000000532
     26        8           0.000001027   -0.000000123   -0.000000873
     27        1           0.000000842    0.000000148   -0.000000118
     28        1           0.000000940    0.000000286    0.000000802
 -------------------------------------------------------------------
 Cartesian Forces:  Max     0.000003228 RMS     0.000001158
 IRC-IRC-IRC-IRC-IRC-IRC-IRC-IRC-IRC-IRC-IRC-IRC-IRC-IRC-IRC-IRC-IRC-IRC
          ******** Start new reaction path calculation ********
 Supplied step size of   0.1000 bohr.
    Integration on MW PES will use step size of   0.2936 sqrt(amu)*bohr.
 Point Number:   0          Path Number:   1
 Calculating another point on the path.
 IRC-IRC-IRC-IRC-IRC-IRC-IRC-IRC-IRC-IRC-IRC-IRC-IRC-IRC-IRC-IRC-IRC-IRC
                          Input orientation:                          
 ---------------------------------------------------------------------
 Center     Atomic      Atomic             Coordinates (Angstroms)
 Number     Number       Type             X           Y           Z
 ---------------------------------------------------------------------
      1          6           0        2.742823   -0.966225    0.894659
      2          1           0        2.137804   -1.767682    1.337710
      3          1           0        3.795849   -1.248279    0.910862
      4          6           0        2.315160   -0.832362   -0.540647
      5          1           0        2.138028    0.137699   -0.961516
      6          1           0        2.359279   -1.682306   -1.191171
      7          8           0        2.606062    0.228294    1.632533
      8          8           0        4.244072   -0.534910   -1.274848
      9          1           0        4.474718    0.246843   -0.770619
     10         14           0       -0.761483   -0.163898   -0.126146
     11          8           0       -1.895905   -0.204939    1.199752
     12          1           0        1.705847    0.565668    1.437204
     13          8           0        0.479059   -1.172546   -0.270195
     14          8           0       -1.943669   -1.151247   -1.052258
     15          6           0       -3.044713   -0.943866    0.972112
     16          1           0       -3.913829   -0.469239    1.457755
     17          1           0       -2.947937   -1.963347    1.387756
     18          6           0       -3.211644   -1.027263   -0.547476
     19          1           0       -3.849122   -1.883361   -0.831989
     20          1           0       -3.720303   -0.107644   -0.906934
     21          8           0        0.161200    1.076491    0.885145
     22          6           0       -0.166586    2.366789    0.549171
     23          1           0        0.641343    3.070813    0.805576
     24          1           0       -1.083371    2.706016    1.072418
     25          6           0       -0.423729    2.341679   -0.958321
     26          8           0       -1.054146    1.139001   -1.237953
     27          1           0       -1.050903    3.188918   -1.280783
     28          1           0        0.537690    2.415667   -1.494092
 ---------------------------------------------------------------------
                    Distance matrix (angstroms):
                    1          2          3          4          5
     1  C    0.000000
     2  H    1.097576   0.000000
     3  H    1.090267   1.789159   0.000000
     4  C    1.503635   2.105826   2.114783   0.000000
     5  H    2.242725   2.986121   2.859215   1.072159   0.000000
     6  H    2.238429   2.539996   2.582762   1.071230   1.847731
     7  O    1.410687   2.071257   2.028958   2.435636   2.637490
     8  O    2.673301   3.575129   2.342462   2.085241   2.232935
     9  H    2.691495   3.736914   2.350241   2.425132   2.347014
    10  Si   3.737102   3.622273   4.797974   3.175593   3.032486
    11  O    4.710673   4.328049   5.793797   4.599535   4.589238
    12  H    1.927789   2.375081   2.817011   2.497528   2.474631
    13  O    2.554228   2.385577   3.521609   1.886832   2.224151
    14  O    5.078181   4.769734   6.066739   4.301285   4.281340
    15  C    5.788097   5.260306   6.847606   5.570378   5.636445
    16  H    6.698887   6.190528   7.768213   6.551776   6.545703
    17  H    5.798461   5.089750   6.798339   5.718221   5.983354
    18  C    6.126920   5.720030   7.161045   5.530244   5.490680
    19  H    6.875768   6.369007   7.866794   6.260020   6.320398
    20  H    6.764237   6.489343   7.816520   6.089844   5.863721
    21  O    3.292044   3.493006   4.314613   3.211875   2.863448
    22  C    4.437680   4.798526   5.375912   4.193010   3.544328
    23  H    4.552124   5.092504   5.349444   4.455194   3.737089
    24  H    5.306290   5.519087   6.282463   5.164505   4.594622
    25  C    4.939921   5.359110   5.846922   4.213135   3.379370
    26  O    4.837043   5.027066   5.817127   3.965442   3.356933
    27  H    6.032422   6.449204   6.926979   5.296118   4.425059
    28  H    4.691049   5.299045   5.461127   3.823369   2.834406
                    6          7          8          9         10
     6  H    0.000000
     7  O    3.418274   0.000000
     8  O    2.208158   3.423217   0.000000
     9  H    2.893711   3.044233   0.958427   0.000000
    10  Si   3.630289   3.819310   5.149053   5.291679   0.000000
    11  O    5.099581   4.543424   6.628110   6.683660   1.745452
    12  H    3.519761   0.981000   3.874155   3.555669   3.010656
    13  O    2.154827   3.179130   3.948573   4.269706   1.605325
    14  O    4.337820   5.459971   6.222343   6.574927   1.797249
    15  C    5.867556   5.808732   7.638223   7.810041   2.650973
    16  H    6.916663   6.559427   8.603649   8.708970   3.541082
    17  H    5.907317   5.975794   7.800954   8.039859   3.210996
    18  C    5.646115   6.338341   7.507275   7.794441   2.631769
    19  H    6.222032   7.225120   8.216704   8.592314   3.603926
    20  H    6.286626   6.825294   7.984308   8.203818   3.060622
    21  O    4.093115   2.693580   4.892036   4.694284   1.847327
    22  C    5.079759   3.665298   5.585767   5.270457   2.685951
    23  H    5.434192   3.553012   5.505366   5.015373   3.646831
    24  H    6.019389   4.479370   6.662950   6.351116   3.126751
    25  C    4.898143   4.512046   5.492114   5.330888   2.661674
    26  O    4.428705   4.739852   5.556478   5.619848   1.737617
    27  H    5.946948   5.534085   6.473305   6.280809   3.557854
    28  H    4.494811   4.340339   4.742493   4.552736   3.195823
                   11         12         13         14         15
    11  O    0.000000
    12  H    3.690913   0.000000
    13  O    2.955920   2.727932   0.000000
    14  O    2.443222   4.739640   2.545916   0.000000
    15  C    1.384772   5.006279   3.743339   2.313737   0.000000
    16  H    2.051448   5.714212   4.772622   3.262949   1.102943
    17  H    2.057697   5.296799   3.888247   2.760748   1.105200
    18  C    2.336705   5.536976   3.703955   1.370379   1.531002
    19  H    3.280263   6.481101   4.421993   2.053110   2.187351
    20  H    2.788552   5.949071   4.378824   2.065588   2.164833
    21  O    2.443916   1.718035   2.548335   3.625854   3.790420
    22  C    3.166636   2.745659   3.689866   4.254312   4.407146
    23  H    4.162157   2.794257   4.380607   5.287686   5.452741
    24  H    3.024910   3.534671   4.391701   4.486963   4.144703
    25  C    3.648266   3.664404   3.693010   3.810456   4.625034
    26  O    2.908116   3.886225   2.937775   2.463933   3.631126
    27  H    4.287814   4.676384   4.731220   4.436923   5.111822
    28  H    4.477360   3.657812   3.791654   4.367520   5.495656
                   16         17         18         19         20
    16  H    0.000000
    17  H    1.780507   0.000000
    18  C    2.196680   2.165852   0.000000
    19  H    2.691998   2.397039   1.104640   0.000000
    20  H    2.399991   3.050538   1.110694   1.781960   0.000000
    21  O    4.395797   4.377210   4.225430   5.271808   4.436191
    22  C    4.786483   5.214328   4.689840   5.790721   4.568585
    23  H    5.805765   6.210043   5.785368   6.884020   5.662087
    24  H    4.271091   5.037757   4.592490   5.686697   4.334504
    25  C    5.091118   5.514431   4.392156   5.440610   4.107216
    26  O    4.246300   4.483899   3.134367   4.136589   2.961772
    27  H    5.392407   6.104562   4.794030   5.810289   4.258261
    28  H    6.070594   6.295269   5.177582   6.177713   4.984211
                   21         22         23         24         25
    21  O    0.000000
    22  C    1.373023   0.000000
    23  H    2.052849   1.101881   0.000000
    24  H    2.058976   1.108764   1.782953   0.000000
    25  C    2.311106   1.529472   2.185714   2.166049   0.000000
    26  O    2.447145   2.342870   3.283685   2.791810   1.386382
    27  H    3.259261   2.192406   2.688965   2.402458   1.102334
    28  H    2.756067   2.161785   2.393414   3.049445   1.103110
                   26         27         28
    26  O    0.000000
    27  H    2.050367   0.000000
    28  H    2.056557   1.779619   0.000000
 Symmetry turned off by external request.
 Stoichiometry    C6H14O7Si(2-)
 Framework group  C1[X(C6H14O7Si)]
 Deg. of freedom    78
 Full point group                 C1      NOp   1
 Rotational constants (GHZ):           0.9652339           0.4001882           0.3695636
 Standard basis: def2TZVPP (5D, 7F)
   641 basis functions,   970 primitive gaussians,   726 cartesian basis functions
    61 alpha electrons       61 beta electrons
       nuclear repulsion energy      1201.6747991743 Hartrees.
 NAtoms=   28 NActive=   28 NUniq=   28 SFac= 1.00D+00 NAtFMM=   60 NAOKFM=F Big=F
 Integral buffers will be    131072 words long.
 Raffenetti 2 integral format.
 Two-electron integral symmetry is turned off.
 Nuclear repulsion after empirical dispersion term =     1201.6566734598 Hartrees.
 One-electron integrals computed using PRISM.
   1 Symmetry operations used in ECPInt.
 ECPInt:  NShTT=   29161 NPrTT=   80163 LenC2=   26405 LenP2D=   54466.
 LDataN:  DoStor=T MaxTD1= 6 Len=  172
 NBasis=   641 RedAO= T EigKep=  2.08D-04  NBF=   641
 NBsUse=   641 1.00D-06 EigRej= -1.00D+00 NBFU=   641
 Initial guess from the checkpoint file:  "IRC_PL2attDep_OHLG_forward.chk"
 B after Tr=     0.009537    0.025021    0.007567
         Rot=    1.000000   -0.000004   -0.000010   -0.000018 Ang=  -0.00 deg.
 ExpMin= 7.01D-02 ExpMax= 4.48D+04 ExpMxC= 1.53D+03 IAcc=3 IRadAn=         5 AccDes= 0.00D+00
 Harris functional with IExCor= 4639 and IRadAn=       5 diagonalized for initial guess.
 HarFok:  IExCor= 4639 AccDes= 0.00D+00 IRadAn=         5 IDoV= 1 UseB2=F ITyADJ=14
 ICtDFT=  3500011 ScaDFX=  1.000000  1.000000  1.000000  1.000000
 FoFCou: FMM=F IPFlag=           0 FMFlag=      100000 FMFlg1=           0
         NFxFlg=           0 DoJE=T BraDBF=F KetDBF=T FulRan=T
         wScrn=  0.000000 ICntrl=       500 IOpCl=  0 I1Cent=   200000004 NGrid=           0
         NMat0=    1 NMatS0=      1 NMatT0=    0 NMatD0=    1 NMtDS0=    0 NMtDT0=    0
 Symmetry not used in FoFCou.
 Requested convergence on RMS density matrix=1.00D-08 within 128 cycles.
 Requested convergence on MAX density matrix=1.00D-06.
 Requested convergence on             energy=1.00D-06.
 No special actions if energy rises.
 Integral accuracy reduced to 1.0D-05 until final iterations.
 Initial convergence to 1.0D-05 achieved.  Increase integral accuracy.
 SCF Done:  E(RwB97XD) =  -1053.27440905     A.U. after   13 cycles
            NFock= 13  Conv=0.83D-08     -V/T= 2.0037
 DoSCS=F DFT=T ScalE2(SS,OS)=  1.000000  1.000000
 Range of M.O.s used for correlation:     1   641
 NBasis=   641 NAE=    61 NBE=    61 NFC=     0 NFV=     0
 NROrb=    641 NOA=    61 NOB=    61 NVA=   580 NVB=   580

 **** Warning!!: The largest alpha MO coefficient is  0.12779275D+02

 Symmetrizing basis deriv contribution to polar:
 IMax=3 JMax=2 DiffMx= 0.00D+00
   1 Symmetry operations used in ECPInt.
 ECPInt:  NShTT=   29161 NPrTT=   80163 LenC2=   26405 LenP2D=   54466.
 LDataN:  DoStor=T MaxTD1= 7 Len=  274
 Calling FoFJK, ICntrl=      2127 FMM=F ISym2X=0 I1Cent= 0 IOpClX= 0 NMat=1 NMatS=1 NMatT=0.
 -------------------------------------------------------------------
 Center     Atomic                   Forces (Hartrees/Bohr)
 Number     Number              X              Y              Z
 -------------------------------------------------------------------
      1        6          -0.000916294   -0.000121682    0.000042039
      2        1           0.000266632   -0.000041666    0.000303339
      3        1          -0.000136242    0.000195526   -0.000547249
      4        6          -0.012254621   -0.001733608    0.002472642
      5        1           0.000409199   -0.000679288    0.000282380
      6        1           0.000230140    0.000593966    0.000440403
      7        8           0.000137550    0.000022169    0.000477140
      8        8           0.005316940    0.000826453   -0.002290771
      9        1           0.000264592    0.000023148   -0.000064044
     10       14           0.000254000    0.001547779    0.000015644
     11        8           0.000543123   -0.000368898   -0.000083288
     12        1           0.000055548    0.000051868    0.000077775
     13        8           0.004020897    0.000876365   -0.001144742
     14        8           0.001244619   -0.000196422    0.000480691
     15        6           0.000087897   -0.000051737   -0.000041318
     16        1           0.000029040    0.000027647   -0.000017112
     17        1          -0.000011547    0.000006328    0.000007967
     18        6           0.000404599   -0.000048238    0.000023731
     19        1           0.000065082   -0.000004017   -0.000030278
     20        1           0.000076909   -0.000007278   -0.000030212
     21        8          -0.000261803   -0.000505794   -0.000296242
     22        6          -0.000027255   -0.000089084   -0.000061986
     23        1           0.000013437   -0.000045324    0.000009708
     24        1           0.000007261   -0.000016423    0.000005435
     25        6           0.000074193    0.000056795   -0.000015544
     26        8           0.000126339   -0.000290512   -0.000013155
     27        1          -0.000014110   -0.000020012    0.000000410
     28        1          -0.000006126   -0.000008062   -0.000003363
 -------------------------------------------------------------------
 Cartesian Forces:  Max     0.012254621 RMS     0.001619113
 IRC-IRC-IRC-IRC-IRC-IRC-IRC-IRC-IRC-IRC-IRC-IRC-IRC-IRC-IRC-IRC-IRC-IRC
 Pt  1 Step number   1 out of a maximum of 100
 Modified Bulirsch-Stoer Extrapolation Cycles:
    EPS =    0.000010000000000
      PEZero:  N= 2 I= 1 D=  7.65D-04 Err=  1.92D-03
      PEZero:  N= 3 I= 2 D=  7.65D-04 Err=  1.28D-03
      PEZero:  N= 3 I= 1 D=  1.53D-03 Err=  8.15D-07
 Maximum DWI energy   std dev =  0.000003582 at pt     2
 Maximum DWI gradient std dev =  0.127224028 at pt     2
 CORRECTOR INTEGRATION CONVERGENCE:
   Recorrection delta-x convergence threshold:    0.010000
   Delta-x Convergence Met
 Point Number:   1          Path Number:   1
   CHANGE IN THE REACTION COORDINATE =    0.29355
   NET REACTION COORDINATE UP TO THIS POINT =    0.29355
  # OF POINTS ALONG THE PATH =   1
  # OF STEPS =   1

 Calculating another point on the path.
 IRC-IRC-IRC-IRC-IRC-IRC-IRC-IRC-IRC-IRC-IRC-IRC-IRC-IRC-IRC-IRC-IRC-IRC
                          Input orientation:                          
 ---------------------------------------------------------------------
 Center     Atomic      Atomic             Coordinates (Angstroms)
 Number     Number       Type             X           Y           Z
 ---------------------------------------------------------------------
      1          6           0        2.739974   -0.966388    0.894785
      2          1           0        2.146273   -1.770961    1.350045
      3          1           0        3.794207   -1.241929    0.891458
      4          6           0        2.277789   -0.838020   -0.530941
      5          1           0        2.148891    0.136615   -0.962399
      6          1           0        2.368385   -1.679367   -1.190102
      7          8           0        2.606409    0.228309    1.633616
      8          8           0        4.256158   -0.533017   -1.280127
      9          1           0        4.484341    0.247636   -0.772857
     10         14           0       -0.761020   -0.161935   -0.126139
     11          8           0       -1.894651   -0.205802    1.199567
     12          1           0        1.707656    0.567615    1.440137
     13          8           0        0.488130   -1.170381   -0.272839
     14          8           0       -1.940757   -1.151708   -1.051132
     15          6           0       -3.044438   -0.944021    0.971969
     16          1           0       -3.912747   -0.468199    1.457151
     17          1           0       -2.948373   -1.963109    1.388098
     18          6           0       -3.210363   -1.027415   -0.547427
     19          1           0       -3.846681   -1.883470   -0.833060
     20          1           0       -3.717425   -0.107944   -0.908015
     21          8           0        0.160587    1.075330    0.884454
     22          6           0       -0.166671    2.366500    0.548983
     23          1           0        0.641811    3.069113    0.805930
     24          1           0       -1.083090    2.705435    1.072610
     25          6           0       -0.423495    2.341842   -0.958375
     26          8           0       -1.053857    1.138345   -1.237991
     27          1           0       -1.051394    3.188185   -1.280783
     28          1           0        0.537396    2.415384   -1.494218
 ---------------------------------------------------------------------
                    Distance matrix (angstroms):
                    1          2          3          4          5
     1  C    0.000000
     2  H    1.098673   0.000000
     3  H    1.089652   1.790493   0.000000
     4  C    1.504257   2.103755   2.117991   0.000000
     5  H    2.239448   2.997707   2.836236   1.073631   0.000000
     6  H    2.234541   2.551484   2.560706   1.072644   1.843317
     7  O    1.411032   2.071043   2.030582   2.435232   2.637617
     8  O    2.686423   3.591926   2.330609   2.137346   2.233816
     9  H    2.701426   3.748068   2.337741   2.471041   2.345758
    10  Si   3.734487   3.635992   4.790823   3.139318   3.042374
    11  O    4.706499   4.336062   5.790647   4.561098   4.597996
    12  H    1.927759   2.381058   2.815882   2.487169   2.480449
    13  O    2.544752   2.396641   3.505832   1.838468   2.223029
    14  O    5.072493   4.780475   6.055709   4.262058   4.288691
    15  C    5.784971   5.269749   6.845604   5.531373   5.646257
    16  H    6.695009   6.198417   7.766325   6.512451   6.554652
    17  H    5.796042   5.098410   6.799201   5.679904   5.992976
    18  C    6.122926   5.731214   7.154049   5.491444   5.499888
    19  H    6.870991   6.379193   7.859307   6.220400   6.328060
    20  H    6.759069   6.499801   7.806961   6.051263   5.871663
    21  O    3.289675   3.501585   4.309633   3.185404   2.871481
    22  C    4.435799   4.807286   5.369041   4.172598   3.552251
    23  H    4.549226   5.097625   5.341348   4.441772   3.741366
    24  H    5.303747   5.526652   6.277143   5.140327   4.602803
    25  C    4.938231   5.371001   5.835606   4.194181   3.388245
    26  O    4.834438   5.040122   5.805513   3.937741   3.367047
    27  H    6.030593   6.460608   6.915518   5.277883   4.433426
    28  H    4.689890   5.310725   5.447404   3.813333   2.841221
                    6          7          8          9         10
     6  H    0.000000
     7  O    3.416031   0.000000
     8  O    2.210410   3.433830   0.000000
     9  H    2.892180   3.052559   0.958545   0.000000
    10  Si   3.637003   3.819503   5.161537   5.300925   0.000000
    11  O    5.104448   4.542730   6.639910   6.692354   1.744861
    12  H    3.521882   0.979959   3.886655   3.565068   3.013275
    13  O    2.153090   3.174588   3.952075   4.269719   1.612097
    14  O    4.343552   5.457934   6.231932   6.581603   1.796397
    15  C    5.874857   5.808976   7.651115   7.819654   2.651698
    16  H    6.922968   6.558632   8.615561   8.717594   3.540337
    17  H    5.915702   5.976470   7.814720   8.049991   3.212733
    18  C    5.653362   6.337873   7.518658   7.802887   2.631695
    19  H    6.228658   7.224020   8.226761   8.599486   3.603432
    20  H    6.291743   6.823769   7.993571   8.210583   3.058525
    21  O    4.094693   2.694575   4.903661   4.703893   1.844312
    22  C    5.081335   3.665824   5.595914   5.279087   2.683659
    23  H    5.432611   3.551743   5.512756   5.021786   3.643674
    24  H    6.021548   4.479206   6.673119   6.359467   3.124507
    25  C    4.900858   4.512843   5.501589   5.339191   2.659970
    26  O    4.433231   4.740447   5.567000   5.628619   1.735712
    27  H    5.949468   5.534809   6.482087   6.288814   3.555394
    28  H    4.495775   4.341365   4.750589   4.560468   3.193759
                   11         12         13         14         15
    11  O    0.000000
    12  H    3.692244   0.000000
    13  O    2.962437   2.728033   0.000000
    14  O    2.441825   4.740614   2.550604   0.000000
    15  C    1.385199   5.008655   3.752309   2.313911   0.000000
    16  H    2.051320   5.715079   4.780548   3.263037   1.102618
    17  H    2.057669   5.299611   3.898291   2.761069   1.104958
    18  C    2.336265   5.539084   3.711427   1.371520   1.530703
    19  H    3.279720   6.482739   4.428648   2.053187   2.187302
    20  H    2.788186   5.949933   4.383938   2.065544   2.164781
    21  O    2.442253   1.720460   2.547515   3.622408   3.789146
    22  C    3.166372   2.746497   3.689673   4.252709   4.406814
    23  H    4.160969   2.792085   4.377290   5.285231   5.451720
    24  H    3.024905   3.534631   4.393281   4.485914   4.144338
    25  C    3.648493   3.666408   3.692794   3.809932   4.625199
    26  O    2.907809   3.888967   2.939296   2.462895   3.630783
    27  H    4.287466   4.677943   4.731087   4.436031   5.110992
    28  H    4.476823   3.659808   3.788391   4.365973   5.495199
                   16         17         18         19         20
    16  H    0.000000
    17  H    1.780320   0.000000
    18  C    2.196451   2.165737   0.000000
    19  H    2.693032   2.397257   1.104227   0.000000
    20  H    2.400404   3.050444   1.110208   1.781802   0.000000
    21  O    4.393463   4.376231   4.223166   5.269018   4.433064
    22  C    4.784702   5.214162   4.688799   5.789193   4.566570
    23  H    5.803505   6.208993   5.783802   6.881928   5.659880
    24  H    4.269284   5.037272   4.591729   5.685689   4.333324
    25  C    5.089791   5.514847   4.391743   5.439408   4.105358
    26  O    4.244764   4.483809   3.133355   4.134634   2.959174
    27  H    5.390062   6.103874   4.792727   5.808249   4.255718
    28  H    6.068723   6.295199   5.176386   6.175549   4.981397
                   21         22         23         24         25
    21  O    0.000000
    22  C    1.373593   0.000000
    23  H    2.052538   1.101513   0.000000
    24  H    2.058975   1.108552   1.782881   0.000000
    25  C    2.311108   1.529278   2.185537   2.166141   0.000000
    26  O    2.446144   2.342806   3.283408   2.792043   1.387064
    27  H    3.259034   2.192246   2.689888   2.402606   1.102044
    28  H    2.756049   2.161658   2.393521   3.049379   1.102655
                   26         27         28
    26  O    0.000000
    27  H    2.050288   0.000000
    28  H    2.056348   1.779615   0.000000
 Symmetry turned off by external request.
 Stoichiometry    C6H14O7Si(2-)
 Framework group  C1[X(C6H14O7Si)]
 Deg. of freedom    78
 Full point group                 C1      NOp   1
 Rotational constants (GHZ):           0.9651750           0.4003654           0.3697743
 Standard basis: def2TZVPP (5D, 7F)
   641 basis functions,   970 primitive gaussians,   726 cartesian basis functions
    61 alpha electrons       61 beta electrons
       nuclear repulsion energy      1201.9455468633 Hartrees.
 NAtoms=   28 NActive=   28 NUniq=   28 SFac= 1.00D+00 NAtFMM=   60 NAOKFM=F Big=F
 Integral buffers will be    131072 words long.
 Raffenetti 2 integral format.
 Two-electron integral symmetry is turned off.
 Nuclear repulsion after empirical dispersion term =     1201.9274154056 Hartrees.
 One-electron integrals computed using PRISM.
   1 Symmetry operations used in ECPInt.
 ECPInt:  NShTT=   29161 NPrTT=   80163 LenC2=   26406 LenP2D=   54470.
 LDataN:  DoStor=T MaxTD1= 6 Len=  172
 NBasis=   641 RedAO= T EigKep=  2.09D-04  NBF=   641
 NBsUse=   641 1.00D-06 EigRej= -1.00D+00 NBFU=   641
 Initial guess from the checkpoint file:  "IRC_PL2attDep_OHLG_forward.chk"
 B after Tr=     0.000352    0.000041   -0.000065
         Rot=    1.000000   -0.000002   -0.000007   -0.000018 Ang=  -0.00 deg.
 ExpMin= 7.01D-02 ExpMax= 4.48D+04 ExpMxC= 1.53D+03 IAcc=3 IRadAn=         5 AccDes= 0.00D+00
 Harris functional with IExCor= 4639 and IRadAn=       5 diagonalized for initial guess.
 HarFok:  IExCor= 4639 AccDes= 0.00D+00 IRadAn=         5 IDoV= 1 UseB2=F ITyADJ=14
 ICtDFT=  3500011 ScaDFX=  1.000000  1.000000  1.000000  1.000000
 FoFCou: FMM=F IPFlag=           0 FMFlag=      100000 FMFlg1=           0
         NFxFlg=           0 DoJE=T BraDBF=F KetDBF=T FulRan=T
         wScrn=  0.000000 ICntrl=       500 IOpCl=  0 I1Cent=   200000004 NGrid=           0
         NMat0=    1 NMatS0=      1 NMatT0=    0 NMatD0=    1 NMtDS0=    0 NMtDT0=    0
 Symmetry not used in FoFCou.
 Requested convergence on RMS density matrix=1.00D-08 within 128 cycles.
 Requested convergence on MAX density matrix=1.00D-06.
 Requested convergence on             energy=1.00D-06.
 No special actions if energy rises.
 Integral accuracy reduced to 1.0D-05 until final iterations.
 Initial convergence to 1.0D-05 achieved.  Increase integral accuracy.
 SCF Done:  E(RwB97XD) =  -1053.27619406     A.U. after   15 cycles
            NFock= 15  Conv=0.21D-08     -V/T= 2.0037
 DoSCS=F DFT=T ScalE2(SS,OS)=  1.000000  1.000000
 Range of M.O.s used for correlation:     1   641
 NBasis=   641 NAE=    61 NBE=    61 NFC=     0 NFV=     0
 NROrb=    641 NOA=    61 NOB=    61 NVA=   580 NVB=   580

 **** Warning!!: The largest alpha MO coefficient is  0.11083813D+02

 Symmetrizing basis deriv contribution to polar:
 IMax=3 JMax=2 DiffMx= 0.00D+00
   1 Symmetry operations used in ECPInt.
 ECPInt:  NShTT=   29161 NPrTT=   80163 LenC2=   26406 LenP2D=   54470.
 LDataN:  DoStor=T MaxTD1= 7 Len=  274
 Calling FoFJK, ICntrl=      2127 FMM=F ISym2X=0 I1Cent= 0 IOpClX= 0 NMat=1 NMatS=1 NMatT=0.
 -------------------------------------------------------------------
 Center     Atomic                   Forces (Hartrees/Bohr)
 Number     Number              X              Y              Z
 -------------------------------------------------------------------
      1        6          -0.001878948   -0.000256800    0.000009820
      2        1           0.000533306   -0.000067575    0.000567693
      3        1          -0.000289042    0.000388945   -0.001079328
      4        6          -0.022854709   -0.003292738    0.004536618
      5        1           0.000695831   -0.001329578    0.000579514
      6        1           0.000360822    0.001182299    0.000919794
      7        8           0.000308552    0.000054758    0.000959194
      8        8           0.009543684    0.001508868   -0.004178470
      9        1           0.000504736    0.000034077   -0.000121821
     10       14           0.000541287    0.003015129    0.000036300
     11        8           0.001070662   -0.000733099   -0.000156286
     12        1           0.000110239    0.000101743    0.000145480
     13        8           0.007720222    0.001759941   -0.002243883
     14        8           0.002483639   -0.000392922    0.000950888
     15        6           0.000185200   -0.000100256   -0.000087790
     16        1           0.000056411    0.000055828   -0.000027306
     17        1          -0.000021018    0.000012450    0.000021123
     18        6           0.000828871   -0.000098090    0.000034851
     19        1           0.000125842   -0.000008627   -0.000052780
     20        1           0.000146469   -0.000012006   -0.000053930
     21        8          -0.000520736   -0.001002192   -0.000588504
     22        6          -0.000052337   -0.000188651   -0.000123526
     23        1           0.000028430   -0.000087789    0.000017045
     24        1           0.000015182   -0.000031135    0.000011404
     25        6           0.000146703    0.000103929   -0.000032339
     26        8           0.000251560   -0.000562422   -0.000035288
     27        1          -0.000029412   -0.000037457    0.000000403
     28        1          -0.000011446   -0.000016632   -0.000008878
 -------------------------------------------------------------------
 Cartesian Forces:  Max     0.022854709 RMS     0.003018671
 IRC-IRC-IRC-IRC-IRC-IRC-IRC-IRC-IRC-IRC-IRC-IRC-IRC-IRC-IRC-IRC-IRC-IRC
 Pt  2 Step number   1 out of a maximum of 100
 Modified Bulirsch-Stoer Extrapolation Cycles:
    EPS =    0.000010000000000
      PEZero:  N= 2 I= 1 D=  1.53D-03 Err=  3.07D-05
      PEZero:  N= 3 I= 2 D=  1.53D-03 Err=  2.05D-05
      PEZero:  N= 3 I= 1 D=  3.06D-03 Err=  5.11D-08
 Maximum DWI energy   std dev =  0.000008741 at pt    35
 Maximum DWI gradient std dev =  0.088603980 at pt    27
 CORRECTOR INTEGRATION CONVERGENCE:
   Recorrection delta-x convergence threshold:    0.010000
   Delta-x Convergence Met
 Point Number:   2          Path Number:   1
   CHANGE IN THE REACTION COORDINATE =    0.29345
   NET REACTION COORDINATE UP TO THIS POINT =    0.58700
  # OF POINTS ALONG THE PATH =   2
  # OF STEPS =   1

 Calculating another point on the path.
 IRC-IRC-IRC-IRC-IRC-IRC-IRC-IRC-IRC-IRC-IRC-IRC-IRC-IRC-IRC-IRC-IRC-IRC
                          Input orientation:                          
 ---------------------------------------------------------------------
 Center     Atomic      Atomic             Coordinates (Angstroms)
 Number     Number       Type             X           Y           Z
 ---------------------------------------------------------------------
      1          6           0        2.736776   -0.966551    0.894633
      2          1           0        2.155619   -1.774336    1.362689
      3          1           0        3.791990   -1.234841    0.870069
      4          6           0        2.240467   -0.843702   -0.521351
      5          1           0        2.158572    0.133025   -0.961306
      6          1           0        2.376458   -1.674924   -1.186748
      7          8           0        2.606827    0.228342    1.634819
      8          8           0        4.267597   -0.531199   -1.285228
      9          1           0        4.494601    0.248217   -0.775296
     10         14           0       -0.760543   -0.159834   -0.126117
     11          8           0       -1.893303   -0.206731    1.199384
     12          1           0        1.709668    0.569797    1.443262
     13          8           0        0.497607   -1.168066   -0.275663
     14          8           0       -1.937611   -1.152210   -1.049924
[...]
 ICtDFT=  3500011 ScaDFX=  1.000000  1.000000  1.000000  1.000000
 FoFCou: FMM=F IPFlag=           0 FMFlag=      100000 FMFlg1=           0
         NFxFlg=           0 DoJE=T BraDBF=F KetDBF=T FulRan=T
         wScrn=  0.000000 ICntrl=       500 IOpCl=  0 I1Cent=   200000004 NGrid=           0
         NMat0=    1 NMatS0=      1 NMatT0=    0 NMatD0=    1 NMtDS0=    0 NMtDT0=    0
 Symmetry not used in FoFCou.
 Requested convergence on RMS density matrix=1.00D-08 within 128 cycles.
 Requested convergence on MAX density matrix=1.00D-06.
 Requested convergence on             energy=1.00D-06.
 No special actions if energy rises.
 Integral accuracy reduced to 1.0D-05 until final iterations.
 Initial convergence to 1.0D-05 achieved.  Increase integral accuracy.
 SCF Done:  E(RwB97XD) =  -1053.31849933     A.U. after   11 cycles
            NFock= 11  Conv=0.65D-08     -V/T= 2.0035
 DoSCS=F DFT=T ScalE2(SS,OS)=  1.000000  1.000000
 Range of M.O.s used for correlation:     1   641
 NBasis=   641 NAE=    61 NBE=    61 NFC=     0 NFV=     0
 NROrb=    641 NOA=    61 NOB=    61 NVA=   580 NVB=   580

 **** Warning!!: The largest alpha MO coefficient is  0.12925772D+02

 Symmetrizing basis deriv contribution to polar:
 IMax=3 JMax=2 DiffMx= 0.00D+00
   1 Symmetry operations used in ECPInt.
 ECPInt:  NShTT=   29161 NPrTT=   80163 LenC2=   26420 LenP2D=   54571.
 LDataN:  DoStor=T MaxTD1= 7 Len=  274
 Calling FoFJK, ICntrl=      2127 FMM=F ISym2X=0 I1Cent= 0 IOpClX= 0 NMat=1 NMatS=1 NMatT=0.
 -------------------------------------------------------------------
 Center     Atomic                   Forces (Hartrees/Bohr)
 Number     Number              X              Y              Z
 -------------------------------------------------------------------
      1        6           0.000264452   -0.000325558    0.000022827
      2        1           0.000222221    0.000716396   -0.000972507
      3        1          -0.001195669    0.000131932    0.000686591
      4        6          -0.007638872   -0.000887768    0.003310079
      5        1           0.000464080    0.001098951   -0.000543375
      6        1           0.000781519   -0.000975013   -0.001080625
      7        8          -0.001138125   -0.000892499    0.002190967
      8        8           0.011538428   -0.000303096   -0.006374008
      9        1          -0.000131182    0.001080104    0.000575054
     10       14          -0.002998309    0.002473793    0.001266821
     11        8          -0.000432660    0.000061612    0.000898968
     12        1          -0.000081762   -0.000084278    0.000122811
     13        8          -0.002691999   -0.001878832    0.001581956
     14        8           0.001580700   -0.000291410    0.000626766
     15        6           0.000023857   -0.000382095   -0.000158290
     16        1          -0.000069120   -0.000074454   -0.000050575
     17        1           0.000016188   -0.000009958    0.000002220
     18        6           0.001005198   -0.000902440   -0.000336934
     19        1           0.000033561   -0.000091549    0.000005999
     20        1          -0.000063910   -0.000091361   -0.000027274
     21        8          -0.000132501   -0.000049030   -0.000674973
     22        6           0.000431806    0.000201690   -0.000283975
     23        1           0.000036510    0.000027601   -0.000031639
     24        1           0.000045114    0.000057018   -0.000011756
     25        6           0.000161761    0.000527021   -0.000265520
     26        8          -0.000064616    0.000764680   -0.000454058
     27        1           0.000035786    0.000058420    0.000004493
     28        1          -0.000002455    0.000040125   -0.000030042
 -------------------------------------------------------------------
 Cartesian Forces:  Max     0.011538428 RMS     0.001885163
 IRC-IRC-IRC-IRC-IRC-IRC-IRC-IRC-IRC-IRC-IRC-IRC-IRC-IRC-IRC-IRC-IRC-IRC
 Error in corrector energy =          -0.0000647169
 Magnitude of corrector gradient =     0.0157120515
 Magnitude of analytic gradient =      0.0172778022
 Magnitude of difference =             0.0069319659
 Angle between gradients (degrees)=   23.6502
 Pt 15 Step number  99 out of a maximum of 100
 Modified Bulirsch-Stoer Extrapolation Cycles:
    EPS =    0.000010000000000
      PEZero:  N= 2 I= 1 D=  1.53D-03 Err=  1.88D-04
      PEZero:  N= 3 I= 2 D=  1.53D-03 Err=  1.25D-04
      PEZero:  N= 3 I= 1 D=  3.05D-03 Err=  7.95D-07
 Maximum DWI energy   std dev =  0.000008370 at pt    22
 Maximum DWI gradient std dev =  0.295884522 at pt    28
 CORRECTOR INTEGRATION CONVERGENCE:
   Recorrection delta-x convergence threshold:    0.010000
   Delta-x Convergence NOT Met
 IRC-IRC-IRC-IRC-IRC-IRC-IRC-IRC-IRC-IRC-IRC-IRC-IRC-IRC-IRC-IRC-IRC-IRC
                          Input orientation:                          
 ---------------------------------------------------------------------
 Center     Atomic      Atomic             Coordinates (Angstroms)
 Number     Number       Type             X           Y           Z
 ---------------------------------------------------------------------
      1          6           0        2.661276   -0.965406    0.891546
      2          1           0        2.273266   -1.816073    1.476885
      3          1           0        3.697128   -1.135039    0.595638
      4          6           0        1.889563   -0.896757   -0.414116
      5          1           0        2.091264    0.062258   -0.892432
      6          1           0        2.315812   -1.642930   -1.085162
      7          8           0        2.609844    0.223028    1.670384
      8          8           0        4.474508   -0.505781   -1.386952
      9          1           0        4.556823    0.259799   -0.812975
     10         14           0       -0.770115   -0.123528   -0.118298
     11          8           0       -1.874025   -0.221533    1.208061
     12          1           0        1.730621    0.602642    1.513176
     13          8           0        0.491775   -1.158418   -0.291362
     14          8           0       -1.878245   -1.164522   -1.026638
     15          6           0       -3.031599   -0.948286    0.967028
     16          1           0       -3.899115   -0.454930    1.431472
     17          1           0       -2.952639   -1.961468    1.395722
     18          6           0       -3.165352   -1.039087   -0.554539
     19          1           0       -3.786749   -1.897176   -0.855442
     20          1           0       -3.658140   -0.122892   -0.934842
     21          8           0        0.151919    1.057762    0.868392
     22          6           0       -0.163414    2.359501    0.543660
     23          1           0        0.655244    3.042225    0.809222
     24          1           0       -1.073780    2.697810    1.074028
     25          6           0       -0.419039    2.347699   -0.963036
     26          8           0       -1.047143    1.137674   -1.247094
     27          1           0       -1.054179    3.188252   -1.278897
     28          1           0        0.536900    2.420352   -1.501043
 ---------------------------------------------------------------------
                    Distance matrix (angstroms):
                    1          2          3          4          5
     1  C    0.000000
     2  H    1.103090   0.000000
     3  H    1.090562   1.807702   0.000000
     4  C    1.518224   2.137347   2.084147   0.000000
     5  H    2.136254   3.029012   2.495329   1.090495   0.000000
     6  H    2.117960   2.568243   2.234072   1.090305   1.730674
     7  O    1.421834   2.075732   2.044899   2.473431   2.619694
     8  O    2.947986   3.842382   2.220574   2.789483   2.499414
     9  H    2.828360   3.842829   2.160749   2.934448   2.474736
    10  Si   3.674641   3.830337   4.635636   2.785549   2.970066
    11  O    4.606787   4.451387   5.678670   4.153551   4.496235
    12  H    1.926479   2.479106   2.780029   2.447022   2.491792
    13  O    2.478560   2.594786   3.325899   1.427357   2.099928
    14  O    4.932172   4.891542   5.806671   3.826651   4.156922
    15  C    5.693401   5.399499   6.741555   5.111561   5.542790
    16  H    6.602335   6.320842   7.672292   6.091814   6.446134
    17  H    5.723843   5.228557   6.748520   5.277883   5.896785
    18  C    6.003847   5.857384   6.958861   5.058868   5.381370
    19  H    6.745160   6.493851   7.661260   5.780669   6.196111
    20  H    6.631782   6.623055   7.580684   5.625570   5.752541
    21  O    3.223448   3.623438   4.177472   2.912795   2.802247
    22  C    4.376632   4.923793   5.207523   3.966771   3.524665
    23  H    4.482416   5.163994   5.171867   4.305308   3.719944
    24  H    5.234797   5.633840   6.138497   4.890489   4.564056
    25  C    4.889221   5.526184   5.612642   4.019633   3.395563
    26  O    4.769602   5.212466   5.573957   3.668379   3.336451
    27  H    5.980661   6.611316   6.691759   5.108891   4.451405
    28  H    4.658413   5.461714   5.198453   3.743570   2.889128
                    6          7          8          9         10
     6  H    0.000000
     7  O    3.340851   0.000000
     8  O    2.458486   3.654510   0.000000
     9  H    2.952388   3.155813   0.960384   0.000000
    10  Si   3.573004   3.839740   5.409406   5.385702   0.000000
    11  O    4.983370   4.529510   6.864311   6.758112   1.728424
    12  H    3.483734   0.970492   4.143461   3.676403   3.072899
    13  O    2.047433   3.200477   4.181916   4.336823   1.641132
    14  O    4.221660   5.416841   6.396971   6.594274   1.771074
    15  C    5.769646   5.804529   7.879002   7.887460   2.640543
    16  H    6.809559   6.548530   8.835364   8.777885   3.507456
    17  H    5.832052   5.982364   8.063797   8.136608   3.230123
    18  C    5.539796   6.316336   7.703557   7.834914   2.601099
    19  H    6.112174   7.196629   8.394454   8.617978   3.576212
    20  H    6.166134   6.796652   8.154200   8.224775   3.001238
    21  O    3.973983   2.716867   5.120158   4.781937   1.794199
    22  C    4.981875   3.677633   5.783376   5.341334   2.640399
    23  H    5.319479   3.536938   5.656705   5.059224   3.593596
    24  H    5.915526   4.477641   6.863157   6.419375   3.077953
    25  C    4.839363   4.541284   5.680568   5.398245   2.635109
    26  O    4.366629   4.766740   5.762737   5.688899   1.715096
    27  H    5.893614   5.560205   6.650109   6.346359   3.520734
    28  H    4.455080   4.379872   4.907141   4.615323   3.176727
                   11         12         13         14         15
    11  O    0.000000
    12  H    3.710233   0.000000
    13  O    2.953478   2.809347   0.000000
    14  O    2.425515   4.753676   2.481464   0.000000
    15  C    1.387892   5.038094   3.747248   2.313371   0.000000
    16  H    2.050701   5.728792   4.768958   3.260327   1.100769
    17  H    2.055724   5.340541   3.918562   2.767177   1.102974
    18  C    2.332955   5.562487   3.668526   1.376683   1.530131
    19  H    3.274804   6.503908   4.378324   2.051458   2.189073
    20  H    2.790130   5.963047   4.325295   2.064327   2.165857
    21  O    2.420004   1.764987   2.524279   3.556860   3.764139
    22  C    3.166916   2.759327   3.674546   4.221992   4.398543
    23  H    4.148300   2.757454   4.345504   5.242678   5.435246
    24  H    3.030003   3.528065   4.380153   4.469627   4.139869
    25  C    3.664915   3.714551   3.684234   3.803817   4.627541
    26  O    2.925571   3.952382   2.924676   2.457527   3.632029
    27  H    4.299273   4.715524   4.717917   4.437270   5.105421
    28  H    4.486798   3.716793   3.777957   4.348483   5.493021
                   16         17         18         19         20
    16  H    0.000000
    17  H    1.779537   0.000000
    18  C    2.196334   2.167845   0.000000
    19  H    2.706044   2.401585   1.101360   0.000000
    20  H    2.401615   3.051167   1.107648   1.780710   0.000000
    21  O    4.360753   4.362581   4.174421   5.216931   4.377459
    22  C    4.760744   5.213114   4.665626   5.762407   4.534462
    23  H    5.775766   6.196592   5.754468   6.848364   5.627166
    24  H    4.248535   5.034131   4.581626   5.674235   4.320975
    25  C    5.069450   5.527368   4.379432   5.419595   4.073866
    26  O    4.224316   4.496674   3.115241   4.107206   2.916133
    27  H    5.358408   6.105519   4.780392   5.788595   4.226424
    28  H    6.045255   6.306225   5.154635   6.144248   4.938323
                   21         22         23         24         25
    21  O    0.000000
    22  C    1.378191   0.000000
    23  H    2.048153   1.098561   0.000000
    24  H    2.057762   1.106575   1.782770   0.000000
    25  C    2.311723   1.528273   2.185715   2.168155   0.000000
    26  O    2.432986   2.341077   3.279310   2.796845   1.392611
    27  H    3.256458   2.191348   2.702534   2.403575   1.099864
    28  H    2.760269   2.162164   2.395424   3.049961   1.099340
                   26         27         28
    26  O    0.000000
    27  H    2.050837   0.000000
    28  H    2.054007   1.780605   0.000000
 Symmetry turned off by external request.
 Stoichiometry    C6H14O7Si(2-)
 Framework group  C1[X(C6H14O7Si)]
 Deg. of freedom    78
 Full point group                 C1      NOp   1
 Rotational constants (GHZ):           0.9570920           0.4001397           0.3709003
 Standard basis: def2TZVPP (5D, 7F)
   641 basis functions,   970 primitive gaussians,   726 cartesian basis functions
    61 alpha electrons       61 beta electrons
       nuclear repulsion energy      1208.5969765411 Hartrees.
 NAtoms=   28 NActive=   28 NUniq=   28 SFac= 1.00D+00 NAtFMM=   60 NAOKFM=F Big=F
 Integral buffers will be    131072 words long.
 Raffenetti 2 integral format.
 Two-electron integral symmetry is turned off.
 Nuclear repulsion after empirical dispersion term =     1208.5785794753 Hartrees.
 One-electron integrals computed using PRISM.
   1 Symmetry operations used in ECPInt.
 ECPInt:  NShTT=   29161 NPrTT=   80163 LenC2=   26421 LenP2D=   54579.
 LDataN:  DoStor=T MaxTD1= 6 Len=  172
 NBasis=   641 RedAO= T EigKep=  2.01D-04  NBF=   641
 NBsUse=   641 1.00D-06 EigRej= -1.00D+00 NBFU=   641
 Initial guess from the checkpoint file:  "IRC_PL2attDep_OHLG_forward.chk"
 B after Tr=    -0.000173   -0.000001   -0.000002
         Rot=    1.000000   -0.000009    0.000023    0.000005 Ang=  -0.00 deg.
 ExpMin= 7.01D-02 ExpMax= 4.48D+04 ExpMxC= 1.53D+03 IAcc=3 IRadAn=         5 AccDes= 0.00D+00
 Harris functional with IExCor= 4639 and IRadAn=       5 diagonalized for initial guess.
 HarFok:  IExCor= 4639 AccDes= 0.00D+00 IRadAn=         5 IDoV= 1 UseB2=F ITyADJ=14
 ICtDFT=  3500011 ScaDFX=  1.000000  1.000000  1.000000  1.000000
 FoFCou: FMM=F IPFlag=           0 FMFlag=      100000 FMFlg1=           0
         NFxFlg=           0 DoJE=T BraDBF=F KetDBF=T FulRan=T
         wScrn=  0.000000 ICntrl=       500 IOpCl=  0 I1Cent=   200000004 NGrid=           0
         NMat0=    1 NMatS0=      1 NMatT0=    0 NMatD0=    1 NMtDS0=    0 NMtDT0=    0
 Symmetry not used in FoFCou.
 Requested convergence on RMS density matrix=1.00D-08 within 128 cycles.
 Requested convergence on MAX density matrix=1.00D-06.
 Requested convergence on             energy=1.00D-06.
 No special actions if energy rises.
 Integral accuracy reduced to 1.0D-05 until final iterations.
 Initial convergence to 1.0D-05 achieved.  Increase integral accuracy.
 SCF Done:  E(RwB97XD) =  -1053.31852588     A.U. after   12 cycles
            NFock= 12  Conv=0.54D-08     -V/T= 2.0035
 DoSCS=F DFT=T ScalE2(SS,OS)=  1.000000  1.000000
 Range of M.O.s used for correlation:     1   641
 NBasis=   641 NAE=    61 NBE=    61 NFC=     0 NFV=     0
 NROrb=    641 NOA=    61 NOB=    61 NVA=   580 NVB=   580

 **** Warning!!: The largest alpha MO coefficient is  0.12888891D+02

 Symmetrizing basis deriv contribution to polar:
 IMax=3 JMax=2 DiffMx= 0.00D+00
   1 Symmetry operations used in ECPInt.
 ECPInt:  NShTT=   29161 NPrTT=   80163 LenC2=   26421 LenP2D=   54579.
 LDataN:  DoStor=T MaxTD1= 7 Len=  274
 Calling FoFJK, ICntrl=      2127 FMM=F ISym2X=0 I1Cent= 0 IOpClX= 0 NMat=1 NMatS=1 NMatT=0.
 -------------------------------------------------------------------
 Center     Atomic                   Forces (Hartrees/Bohr)
 Number     Number              X              Y              Z
 -------------------------------------------------------------------
      1        6          -0.002821361    0.000750722   -0.000109212
      2        1          -0.000116011   -0.000590843    0.000596305
      3        1           0.000774483    0.000021891   -0.000601706
      4        6          -0.001946846   -0.000504559    0.000089615
      5        1          -0.000519979   -0.000473974    0.000340830
      6        1          -0.001061870    0.000889570    0.000915391
      7        8          -0.001032351   -0.000935218    0.002274131
      8        8           0.011781147    0.001600932   -0.005042185
      9        1          -0.000345668   -0.000837825   -0.000795040
     10       14          -0.002862116    0.002432618    0.001223925
     11        8          -0.000422442    0.000031989    0.000890351
     12        1          -0.000037058   -0.000002468    0.000146186
     13        8          -0.004739776   -0.001957950    0.001750329
     14        8           0.001592176   -0.000268534    0.000687175
     15        6           0.000073209   -0.000434067   -0.000163704
     16        1          -0.000016901   -0.000030990   -0.000051449
     17        1           0.000014228   -0.000018037    0.000010717
     18        6           0.001018276   -0.000949849   -0.000300367
     19        1           0.000130237   -0.000082919   -0.000017193
     20        1           0.000051683   -0.000084036   -0.000060741
     21        8          -0.000193290   -0.000063919   -0.000688405
     22        6           0.000436208    0.000192303   -0.000317379
     23        1           0.000052512   -0.000041242   -0.000016331
     24        1           0.000040252    0.000022011    0.000000005
     25        6           0.000189190    0.000531391   -0.000273921
     26        8          -0.000042870    0.000761118   -0.000462746
     27        1           0.000003734    0.000028112    0.000003488
     28        1           0.000001205    0.000013772   -0.000028070
 -------------------------------------------------------------------
 Cartesian Forces:  Max     0.011781147 RMS     0.001712563
 IRC-IRC-IRC-IRC-IRC-IRC-IRC-IRC-IRC-IRC-IRC-IRC-IRC-IRC-IRC-IRC-IRC-IRC
 Error in corrector energy =          -0.0000418554
 Magnitude of corrector gradient =     0.0165152435
 Magnitude of analytic gradient =      0.0156959006
 Magnitude of difference =             0.0053920047
 Angle between gradients (degrees)=   19.0532
 Pt 15 Step number 100 out of a maximum of 100
 Modified Bulirsch-Stoer Extrapolation Cycles:
    EPS =    0.000010000000000
      PEZero:  N= 2 I= 1 D=  1.53D-03 Err=  1.65D-04
      PEZero:  N= 3 I= 2 D=  1.53D-03 Err=  1.10D-04
      PEZero:  N= 3 I= 1 D=  3.05D-03 Err=  3.84D-07
 Maximum DWI energy   std dev =  0.000002541 at pt    23
 Maximum DWI gradient std dev =  0.210207121 at pt    39
 CORRECTOR INTEGRATION CONVERGENCE:
   Recorrection delta-x convergence threshold:    0.010000
   Delta-x Convergence NOT Met
 Maximum number of corrector steps exceded.
 Error termination via Lnk1e in /opt/software/gaussian/g16.c01/l123.exe at Tue Feb 20 01:03:48 2024.
 Job cpu time:       7 days 16 hours 47 minutes 28.2 seconds.
 Elapsed time:       2 days  1 hours 51 minutes 52.6 seconds.
 File lengths (MBytes):  RWF=    782 Int=      0 D2E=      0 Chk=     32 Scr=      1
