 Entering Gaussian System, Link 0=/opt/software/gaussian/g16.c01/g16
 Initial command:
 /opt/software/gaussian/g16.c01/l1.exe "/scratch/arhender/23861138/Gau-132778.inp" -scrdir="/scratch/arhender/23861138/"
 Entering Link 1 = /opt/software/gaussian/g16.c01/l1.exe PID=    132779.
  
 Copyright (c) 1988-2019, Gaussian, Inc.  All Rights Reserved.
  
 This is part of the Gaussian(R) 16 program.  It is based on
 the Gaussian(R) 09 system (copyright 2009, Gaussian, Inc.),
 the Gaussian(R) 03 system (copyright 2003, Gaussian, Inc.),
 the Gaussian(R) 98 system (copyright 1998, Gaussian, Inc.),
 the Gaussian(R) 94 system (copyright 1995, Gaussian, Inc.),
 the Gaussian 92(TM) system (copyright 1992, Gaussian, Inc.),
 the Gaussian 90(TM) system (copyright 1990, Gaussian, Inc.),
 the Gaussian 88(TM) system (copyright 1988, Gaussian, Inc.),
 the Gaussian 86(TM) system (copyright 1986, Carnegie Mellon
 University), and the Gaussian 82(TM) system (copyright 1983,
 Carnegie Mellon University). Gaussian is a federally registered
 trademark of Gaussian, Inc.
  
 This software contains proprietary and confidential information,
 including trade secrets, belonging to Gaussian, Inc.
  
 This software is provided under written license and may be
 used, copied, transmitted, or stored only in accord with that
 written license.
  
 The following legend is applicable only to US Government
 contracts under FAR:
  
                    RESTRICTED RIGHTS LEGEND
  
 Use, reproduction and disclosure by the US Government is
 subject to restrictions as set forth in subparagraphs (a)
 and (c) of the Commercial Computer Software - Restricted
 Rights clause in FAR 52.227-19.
  
 Gaussian, Inc.
 340 Quinnipiac St., Bldg. 40, Wallingford CT 06492
  
  
 ---------------------------------------------------------------
 Warning -- This program may not be used in any manner that
 competes with the business of Gaussian, Inc. or will provide
 assistance to any competitor of Gaussian, Inc.  The licensee
 of this program is prohibited from giving any competitor of
 Gaussian, Inc. access to this program.  By using this program,
 the user acknowledges that Gaussian, Inc. is engaged in the
 business of creating and licensing software in the field of
 computational chemistry and represents and warrants to the
 licensee that it is not a competitor of Gaussian, Inc. and that
 it will not use this program in any manner prohibited above.
 ---------------------------------------------------------------
  

 Cite this work as:
 Gaussian 16, Revision C.01,
 M. J. Frisch, G. W. Trucks, H. B. Schlegel, G. E. Scuseria, 
 M. A. Robb, J. R. Cheeseman, G. Scalmani, V. Barone, 
 G. A. Petersson, H. Nakatsuji, X. Li, M. Caricato, A. V. Marenich, 
 J. Bloino, B. G. Janesko, R. Gomperts, B. Mennucci, H. P. Hratchian, 
 J. V. Ortiz, A. F. Izmaylov, J. L. Sonnenberg, D. Williams-Young, 
 F. Ding, F. Lipparini, F. Egidi, J. Goings, B. Peng, A. Petrone, 
 T. Henderson, D. Ranasinghe, V. G. Zakrzewski, J. Gao, N. Rega, 
 G. Zheng, W. Liang, M. Hada, M. Ehara, K. Toyota, R. Fukuda, 
 J. Hasegawa, M. Ishida, T. Nakajima, Y. Honda, O. Kitao, H. Nakai, 
 T. Vreven, K. Throssell, J. A. Montgomery, Jr., J. E. Peralta, 
 F. Ogliaro, M. J. Bearpark, J. J. Heyd, E. N. Brothers, K. N. Kudin, 
 V. N. Staroverov, T. A. Keith, R. Kobayashi, J. Normand, 
 K. Raghavachari, A. P. Rendell, J. C. Burant, S. S. Iyengar, 
 J. Tomasi, M. Cossi, J. M. Millam, M. Klene, C. Adamo, R. Cammi, 
 J. W. Ochterski, R. L. Martin, K. Morokuma, O. Farkas, 
 J. B. Foresman, and D. J. Fox, Gaussian, Inc., Wallingford CT, 2019.
 
 ******************************************
 Gaussian 16:  ES64L-G16RevC.01  3-Jul-2019
                29-Jan-2024 
 ******************************************
 %oldchk=TSOpt_FromFrozenBoth21.chk
 %chk=IRC_of_TSOpt_FromFrozenBoth21_Reverse.chk
 %mem=3200MB
 %nprocs=4
 Will use up to    4 processors via shared memory.
 Copying data from "TSOpt_FromFrozenBoth21.chk" to current chk file "IRC_of_TSOpt_FromFrozenBoth21_Reverse.chk"
 IOpt=  2 FromEx=T IUOpen= 4 IOptOp= 5 NList=   0 IFRang= 0 IUIn= 4 IUOut= 2.
 ----------------------------------------------------------------------
 # irc=(reverse,rcfc,maxpoints=100,maxcycles=100) wb97xd/def2tzvpp geom
 =connectivity
 ----------------------------------------------------------------------
 1/6=100,10=5,18=10,22=2,26=3,38=1,42=100,44=3,57=2,172=1/1,23;
 2/12=2,17=6,18=5,29=1,40=1/2;
 3/5=44,7=202,11=2,25=1,30=1,71=2,74=-58,140=1/1,2,3;
 4//1;
 5/5=2,38=5/2;
 8/6=4,10=90,11=11/1;
 11/6=1,8=1,9=11,15=111,16=1/1,2,10;
 10/6=1,13=1/2;
 6/7=2,8=2,9=2,10=2,28=1/1;
 7/10=1,25=1/1,2,3,16;
 1/6=100,18=10,22=2,26=3,42=100,44=3/23(2);
 2/29=1/2;
 99/5=20/99;
 2/29=1/2;
 3/5=44,7=202,11=2,25=1,30=1,71=2,74=-58,140=1/1,2,3;
 4/5=5,16=3,69=1/1;
 5/5=2,38=5/2;
 8/6=4,10=90,11=11/1;
 11/6=1,8=1,9=11,15=111,16=1/1,2,10;
 10/6=1,13=1/2;
 7/10=1,25=1/1,2,3,16;
 1/6=100,18=10,22=2,26=3,42=100,44=3/23(-8);
 2/29=1/2;
 6/7=2,8=2,9=2,10=2,19=2,28=1/1;
 99/5=20,9=1/99;
 ----------------------------------------------------------------------
 TS Opt on modredundant with bond lengths 2 point 1 A and correct imag 
 freq
 ----------------------------------------------------------------------
 Symbolic Z-matrix:
 Charge =  0 Multiplicity = 1
 Si                    0.91731  -0.08748  -0.02743 
 O                     1.7976   -0.94932  -1.11272 
 H                     1.42568  -1.77549  -1.40966 
 O                     2.43126   0.9887    0.50385 
 H                     3.17897   0.90304  -0.09006 
 O                     0.35631   1.36462  -0.37473 
 H                     1.63587   1.64252   0.07284 
 O                     0.69269  -0.83118   1.41832 
 H                     1.32982  -0.5939    2.08781 
 C                    -1.93413  -1.06027   0.19837 
 H                    -1.64306  -1.65746   1.05638 
 H                    -2.7008   -1.57745  -0.37834 
 C                    -2.38279   0.34589   0.58514 
 H                    -1.7508    0.72442   1.39185 
 H                    -3.41113   0.30039   0.94829 
 O                    -0.76981  -0.97045  -0.66074 
 H                    -1.0399   -0.35376  -1.35884 
 O                    -2.3269    1.1915   -0.5347 
 H                    -1.41463   1.54771  -0.55165 
 
 IRC-IRC-IRC-IRC-IRC-IRC-IRC-IRC-IRC-IRC-IRC-IRC-IRC-IRC-IRC-IRC-IRC-IRC
 ------------------------------------------------------------------------
 INPUT DATA FOR L123
 ------------------------------------------------------------------------
 GENERAL PARAMETERS:
 Rxn path following direction = Reverse
 Maximum points per path      = 100
 Step size                    =   0.100 bohr
 Integration scheme           = HPC                                 
    Redo corrector integration= Yes                                 
    DWI Weight Power          =  2
    DWI will use Hessian update vectors when possible.
    Max correction cycles     = 100
 Initial Hessian              = ReadFC from chk
 Hessian evaluation           = All updating
 Hessian updating method      = Bofill                              
 ------------------------------------------------------------------------
          ******** Start new reaction path calculation ********
 RCFC Option Requested - Data Read From Chk File:
 "IRC_of_TSOpt_FromFrozenBoth21_Reverse.chk"
   Energy From Chk =   -823.3046990

 Supplied step size of   0.1000 bohr.
    Integration on MW PES will use step size of   0.1101 sqrt(amu)*bohr.
 Point Number:   0          Path Number:   1
 Calculating another point on the path.
 IRC-IRC-IRC-IRC-IRC-IRC-IRC-IRC-IRC-IRC-IRC-IRC-IRC-IRC-IRC-IRC-IRC-IRC
                          Input orientation:                          
 ---------------------------------------------------------------------
 Center     Atomic      Atomic             Coordinates (Angstroms)
 Number     Number       Type             X           Y           Z
 ---------------------------------------------------------------------
      1         14           0        0.887157   -0.092116   -0.017334
      2          8           0        1.770767   -0.954234   -1.101096
      3          1           0        1.398870   -1.780555   -1.397490
      4          8           0        2.406685    0.984607    0.515437
      5          1           0        3.153574    0.899040   -0.079989
      6          8           0        0.326590    1.357174   -0.364117
      7          1           0        1.657739    1.641229    0.100879
      8          8           0        0.666010   -0.836436    1.429278
      9          1           0        1.301314   -0.599842    2.100718
     10          6           0       -1.961509   -1.065596    0.209447
     11          1           0       -1.670625   -1.662852    1.067531
     12          1           0       -2.728374   -1.582699   -0.367106
     13          6           0       -2.410198    0.340703    0.596067
     14          1           0       -1.778143    0.719136    1.402849
     15          1           0       -3.438557    0.294887    0.959370
     16          8           0       -0.797379   -0.976390   -0.649704
     17          1           0       -1.066196   -0.356731   -1.346212
     18          8           0       -2.354147    1.186286   -0.523506
     19          1           0       -1.439117    1.538923   -0.540843
 ---------------------------------------------------------------------
                    Distance matrix (angstroms):
                    1          2          3          4          5
     1  Si   0.000000
     2  O    1.642728   0.000000
     3  H    2.239980   0.953396   0.000000
     4  O    1.937045   2.603205   3.510143   0.000000
     5  H    2.474462   2.527733   3.463383   0.959009   0.000000
     6  O    1.592147   2.823365   3.473181   2.288933   2.877925
     7  H    1.900593   2.862507   3.744427   1.078856   1.679607
     8  O    1.641830   2.763540   3.069049   2.679785   3.387880
     9  H    2.217083   3.255395   3.693381   2.499087   3.230014
    10  C    3.018938   3.957247   3.792830   4.835088   5.487043
    11  H    3.191613   4.128954   3.938526   4.892679   5.581486
    12  H    3.926352   4.601736   4.258518   5.808509   6.390522
    13  C    3.381736   4.694432   4.794059   4.860398   5.632437
    14  H    3.127119   4.654533   4.917700   4.286112   5.152961
    15  H    4.451463   5.739589   5.767404   5.902512   6.700855
    16  O    2.004867   2.607608   2.455479   3.933076   4.410424
    17  H    2.377294   2.909545   2.847184   4.162430   4.581128
    18  O    3.520876   4.682985   4.863243   4.877048   5.533010
    19  H    2.888927   4.102813   4.450500   4.026560   4.659898
                    6          7          8          9         10
     6  O    0.000000
     7  H    1.438355   0.000000
     8  O    2.853664   2.981106   0.000000
     9  H    3.294755   3.024698   0.954159   0.000000
    10  C    3.381448   4.520801   2.905918   3.799980   0.000000
    11  H    3.893462   4.788463   2.504734   3.321128   1.085190
    12  H    4.239773   5.463580   3.912256   4.826443   1.089904
    13  C    3.073300   4.299382   3.397492   4.113869   1.525934
    14  H    2.821199   3.788228   2.897308   3.421956   2.154786
    15  H    4.129940   5.340588   4.283478   4.956773   2.143588
    16  O    2.605837   3.666457   2.546225   3.480104   1.449584
    17  H    2.416989   3.675015   3.306660   4.188740   1.929806
    18  O    2.690903   4.085591   4.126272   4.841405   2.400491
    19  H    1.783813   3.164299   3.735675   4.366019   2.760317
                   11         12         13         14         15
    11  H    0.000000
    12  H    1.784220   0.000000
    13  C    2.187116   2.174492   0.000000
    14  H    2.407876   3.055180   1.092521   0.000000
    15  H    2.640081   2.406082   1.091610   1.770208   0.000000
    16  O    2.045162   2.043579   2.426492   2.837196   3.343813
    17  H    2.810240   2.285713   2.462764   3.036725   3.371708
    18  O    3.334096   2.798533   1.404136   2.064183   2.041925
    19  H    3.590520   3.381848   1.916062   2.136569   2.792136
                   16         17         18         19
    16  O    0.000000
    17  H    0.970239   0.000000
    18  O    2.667699   2.171765   0.000000
    19  H    2.598168   2.093130   0.980782   0.000000
 Symmetry turned off by external request.
 Stoichiometry    C2H10O6Si
 Framework group  C1[X(C2H10O6Si)]
 Deg. of freedom    51
 Full point group                 C1      NOp   1
 Rotational constants (GHZ):           2.2336486           0.9707280           0.8823747
 Standard basis: def2TZVPP (5D, 7F)
   430 basis functions,   647 primitive gaussians,   486 cartesian basis functions
    42 alpha electrons       42 beta electrons
       nuclear repulsion energy       671.4038344258 Hartrees.
 NAtoms=   19 NActive=   19 NUniq=   19 SFac= 1.00D+00 NAtFMM=   60 NAOKFM=F Big=F
 Integral buffers will be    131072 words long.
 Raffenetti 2 integral format.
 Two-electron integral symmetry is turned off.
 Nuclear repulsion after empirical dispersion term =      671.3934206089 Hartrees.
 One-electron integrals computed using PRISM.
   1 Symmetry operations used in ECPInt.
 ECPInt:  NShTT=   13203 NPrTT=   36019 LenC2=   12676 LenP2D=   27298.
 LDataN:  DoStor=T MaxTD1= 6 Len=  172
 NBasis=   430 RedAO= T EigKep=  2.04D-04  NBF=   430
 NBsUse=   430 1.00D-06 EigRej= -1.00D+00 NBFU=   430
 ExpMin= 7.01D-02 ExpMax= 4.48D+04 ExpMxC= 1.53D+03 IAcc=3 IRadAn=         5 AccDes= 0.00D+00
 Harris functional with IExCor= 4639 and IRadAn=       5 diagonalized for initial guess.
 HarFok:  IExCor= 4639 AccDes= 0.00D+00 IRadAn=         5 IDoV= 1 UseB2=F ITyADJ=14
 ICtDFT=  3500011 ScaDFX=  1.000000  1.000000  1.000000  1.000000
 FoFCou: FMM=F IPFlag=           0 FMFlag=      100000 FMFlg1=           0
         NFxFlg=           0 DoJE=T BraDBF=F KetDBF=T FulRan=T
         wScrn=  0.000000 ICntrl=       500 IOpCl=  0 I1Cent=   200000004 NGrid=           0
         NMat0=    1 NMatS0=      1 NMatT0=    0 NMatD0=    1 NMtDS0=    0 NMtDT0=    0
 Symmetry not used in FoFCou.
 Requested convergence on RMS density matrix=1.00D-08 within 128 cycles.
 Requested convergence on MAX density matrix=1.00D-06.
 Requested convergence on             energy=1.00D-06.
 No special actions if energy rises.
 Integral accuracy reduced to 1.0D-05 until final iterations.
 Initial convergence to 1.0D-05 achieved.  Increase integral accuracy.
 SCF Done:  E(RwB97XD) =  -823.304874508     A.U. after   14 cycles
            NFock= 14  Conv=0.49D-08     -V/T= 2.0034
 DoSCS=F DFT=T ScalE2(SS,OS)=  1.000000  1.000000
 Range of M.O.s used for correlation:     1   430
 NBasis=   430 NAE=    42 NBE=    42 NFC=     0 NFV=     0
 NROrb=    430 NOA=    42 NOB=    42 NVA=   388 NVB=   388

 **** Warning!!: The largest alpha MO coefficient is  0.13104551D+02

 Symmetrizing basis deriv contribution to polar:
 IMax=3 JMax=2 DiffMx= 0.00D+00

 **********************************************************************

            Population analysis using the SCF Density.

 **********************************************************************

 Alpha  occ. eigenvalues --  -66.31113 -19.32240 -19.28302 -19.25023 -19.24885
 Alpha  occ. eigenvalues --  -19.23388 -19.17337 -10.35230 -10.33043  -5.42570
 Alpha  occ. eigenvalues --   -3.77424  -3.77001  -3.76770  -1.19741  -1.15780
 Alpha  occ. eigenvalues --   -1.11528  -1.11047  -1.10080  -1.00171  -0.85479
 Alpha  occ. eigenvalues --   -0.73419  -0.67742  -0.66631  -0.64042  -0.61154
 Alpha  occ. eigenvalues --   -0.60442  -0.58784  -0.55281  -0.54557  -0.50446
 Alpha  occ. eigenvalues --   -0.50167  -0.48801  -0.46921  -0.45907  -0.44877
 Alpha  occ. eigenvalues --   -0.44250  -0.41904  -0.41384  -0.40144  -0.36753
 Alpha  occ. eigenvalues --   -0.35706  -0.34567
 Alpha virt. eigenvalues --    0.08337   0.11947   0.13054   0.14197   0.14365
 Alpha virt. eigenvalues --    0.16274   0.17852   0.18549   0.19971   0.21095
 Alpha virt. eigenvalues --    0.22251   0.24272   0.24552   0.25471   0.26625
 Alpha virt. eigenvalues --    0.27751   0.28490   0.30229   0.31622   0.32670
 Alpha virt. eigenvalues --    0.33099   0.35100   0.35636   0.37705   0.39726
 Alpha virt. eigenvalues --    0.41200   0.41886   0.42661   0.43464   0.44140
 Alpha virt. eigenvalues --    0.45504   0.45957   0.46630   0.47501   0.48719
 Alpha virt. eigenvalues --    0.50614   0.51149   0.53080   0.53380   0.54402
 Alpha virt. eigenvalues --    0.55304   0.56341   0.56917   0.58356   0.59646
 Alpha virt. eigenvalues --    0.60316   0.60803   0.61700   0.63267   0.64270
 Alpha virt. eigenvalues --    0.65468   0.68049   0.68655   0.69470   0.70505
 Alpha virt. eigenvalues --    0.72359   0.73573   0.74629   0.75726   0.77920
 Alpha virt. eigenvalues --    0.79226   0.81700   0.82978   0.83980   0.86156
 Alpha virt. eigenvalues --    0.86718   0.89309   0.90469   0.91710   0.92874
 Alpha virt. eigenvalues --    0.94024   0.95583   0.96256   0.96446   0.98939
 Alpha virt. eigenvalues --    1.00463   1.02461   1.03612   1.05257   1.06863
 Alpha virt. eigenvalues --    1.07679   1.08660   1.10088   1.12492   1.13206
 Alpha virt. eigenvalues --    1.14648   1.15791   1.17300   1.18754   1.20098
 Alpha virt. eigenvalues --    1.21773   1.22934   1.23581   1.26632   1.27308
 Alpha virt. eigenvalues --    1.29792   1.30207   1.31619   1.32877   1.33825
 Alpha virt. eigenvalues --    1.34625   1.38046   1.38664   1.40112   1.41299
 Alpha virt. eigenvalues --    1.42913   1.44406   1.45330   1.46098   1.47783
 Alpha virt. eigenvalues --    1.48362   1.51997   1.53487   1.54892   1.57542
 Alpha virt. eigenvalues --    1.58917   1.61451   1.63389   1.66276   1.67141
 Alpha virt. eigenvalues --    1.68554   1.75034   1.76542   1.78959   1.83204
 Alpha virt. eigenvalues --    1.84241   1.85085   1.88091   1.89860   1.92229
 Alpha virt. eigenvalues --    1.94634   1.95738   1.96661   1.98039   1.99466
 Alpha virt. eigenvalues --    2.00381   2.02552   2.04461   2.05469   2.06129
 Alpha virt. eigenvalues --    2.07280   2.09410   2.11639   2.12508   2.15620
 Alpha virt. eigenvalues --    2.17625   2.18397   2.22433   2.22824   2.24866
 Alpha virt. eigenvalues --    2.29583   2.30840   2.31432   2.32533   2.37271
 Alpha virt. eigenvalues --    2.39505   2.42279   2.43345   2.45283   2.51058
 Alpha virt. eigenvalues --    2.55707   2.59006   2.59698   2.64207   2.64875
 Alpha virt. eigenvalues --    2.66676   2.72422   2.73573   2.76134   2.77216
 Alpha virt. eigenvalues --    2.78497   2.79967   2.84017   2.84657   2.86802
 Alpha virt. eigenvalues --    2.91258   2.92218   2.94416   2.97068   2.98893
 Alpha virt. eigenvalues --    3.01501   3.04367   3.05400   3.08747   3.10059
 Alpha virt. eigenvalues --    3.10447   3.12534   3.13562   3.14844   3.17682
 Alpha virt. eigenvalues --    3.18408   3.21386   3.22079   3.22924   3.26872
 Alpha virt. eigenvalues --    3.27565   3.30298   3.32803   3.33597   3.35031
 Alpha virt. eigenvalues --    3.36457   3.38101   3.38251   3.39534   3.40847
 Alpha virt. eigenvalues --    3.42691   3.43761   3.44826   3.45404   3.46596
 Alpha virt. eigenvalues --    3.49087   3.50310   3.51963   3.54196   3.56485
 Alpha virt. eigenvalues --    3.58721   3.59931   3.62428   3.63035   3.63950
 Alpha virt. eigenvalues --    3.68663   3.69856   3.72103   3.72793   3.75081
 Alpha virt. eigenvalues --    3.76265   3.76682   3.78470   3.80522   3.82032
 Alpha virt. eigenvalues --    3.84165   3.85623   3.86905   3.90922   3.92838
 Alpha virt. eigenvalues --    3.93296   3.94231   3.98702   4.00396   4.01824
 Alpha virt. eigenvalues --    4.02511   4.04556   4.05943   4.08167   4.10330
 Alpha virt. eigenvalues --    4.11106   4.11949   4.12907   4.13961   4.14988
 Alpha virt. eigenvalues --    4.16473   4.18413   4.18739   4.20582   4.20798
 Alpha virt. eigenvalues --    4.22020   4.23386   4.26323   4.29054   4.30330
 Alpha virt. eigenvalues --    4.32437   4.35392   4.36068   4.36664   4.38631
 Alpha virt. eigenvalues --    4.43524   4.44455   4.46686   4.48833   4.49236
 Alpha virt. eigenvalues --    4.57827   4.59048   4.64841   4.66943   4.71056
 Alpha virt. eigenvalues --    4.73798   4.74661   4.76653   4.80072   4.82391
 Alpha virt. eigenvalues --    4.86301   4.89550   4.91660   4.94377   4.95114
 Alpha virt. eigenvalues --    4.97575   5.00599   5.03509   5.05758   5.06798
 Alpha virt. eigenvalues --    5.08242   5.10352   5.10648   5.16421   5.17120
 Alpha virt. eigenvalues --    5.21302   5.26212   5.28245   5.34580   5.37558
 Alpha virt. eigenvalues --    5.39714   5.40208   5.41467   5.42989   5.43811
 Alpha virt. eigenvalues --    5.44539   5.46034   5.49259   5.52183   5.54117
 Alpha virt. eigenvalues --    5.57204   5.59823   5.60716   5.61719   5.67735
 Alpha virt. eigenvalues --    5.70546   5.72228   5.75098   5.75411   5.79128
 Alpha virt. eigenvalues --    5.80680   5.86094   5.89279   5.95330   6.00268
 Alpha virt. eigenvalues --    6.01079   6.05354   6.15743   6.19308   6.46548
 Alpha virt. eigenvalues --    6.51149   6.52629   6.53784   6.55315   6.58587
 Alpha virt. eigenvalues --    6.60791   6.63653   6.65317   6.65763   6.67481
 Alpha virt. eigenvalues --    6.68532   6.70418   6.71702   6.72750   6.75359
 Alpha virt. eigenvalues --    6.76334   6.77409   6.78858   6.80348   6.81125
 Alpha virt. eigenvalues --    6.82347   6.85026   6.86004   6.87348   6.89913
 Alpha virt. eigenvalues --    6.92249   6.96941   6.99914   7.03389   7.09616
 Alpha virt. eigenvalues --    7.11771   7.14270   7.17554   7.21894   7.24048
 Alpha virt. eigenvalues --    7.29666   7.34847   7.36431   7.39122   7.40435
 Alpha virt. eigenvalues --    7.43816   7.49575   7.54211   7.58313   7.65193
 Alpha virt. eigenvalues --    7.68046   7.78294   7.79432   7.84278  12.79241
 Alpha virt. eigenvalues --   23.40480  23.48589  43.86083  43.92916  43.94420
 Alpha virt. eigenvalues --   44.11887  44.17493  44.24125
          Condensed to atoms (all electrons):
               1          2          3          4          5          6
     1  Si  11.492811   0.448732  -0.021508   0.227795  -0.010098   0.522164
     2  O    0.448732   7.708714   0.345052  -0.030188   0.003144  -0.019074
     3  H   -0.021508   0.345052   0.492564   0.002003  -0.000161   0.000233
     4  O    0.227795  -0.030188   0.002003   7.715131   0.323946  -0.125064
     5  H   -0.010098   0.003144  -0.000161   0.323946   0.493443   0.005400
     6  O    0.522164  -0.019074   0.000233  -0.125064   0.005400   8.191605
     7  H   -0.013657   0.000488  -0.000238   0.243299  -0.009274   0.126142
     8  O    0.417167  -0.025861  -0.001071  -0.022539   0.000797  -0.024221
     9  H   -0.016175   0.000103  -0.000014   0.001449  -0.000238  -0.000596
    10  C   -0.008307   0.001536   0.000163  -0.000091   0.000004  -0.003248
    11  H   -0.009497   0.000209  -0.000056   0.000044  -0.000005   0.000178
    12  H    0.002463  -0.000133  -0.000111   0.000003  -0.000001  -0.000184
    13  C    0.002158  -0.000419   0.000104   0.000064  -0.000001   0.003396
    14  H   -0.004616  -0.000081  -0.000021   0.000151  -0.000012   0.001063
    15  H    0.000548   0.000001  -0.000001  -0.000002   0.000000   0.000125
    16  O    0.201385  -0.029358   0.004927   0.000253   0.000080  -0.030690
    17  H   -0.015573   0.001679  -0.000268   0.000080  -0.000072   0.005095
    18  O   -0.005910  -0.000015   0.000006  -0.000100   0.000011  -0.035881
    19  H   -0.004401  -0.000039  -0.000030   0.000411  -0.000061   0.061308
               7          8          9         10         11         12
     1  Si  -0.013657   0.417167  -0.016175  -0.008307  -0.009497   0.002463
     2  O    0.000488  -0.025861   0.000103   0.001536   0.000209  -0.000133
     3  H   -0.000238  -0.001071  -0.000014   0.000163  -0.000056  -0.000111
     4  O    0.243299  -0.022539   0.001449  -0.000091   0.000044   0.000003
     5  H   -0.009274   0.000797  -0.000238   0.000004  -0.000005  -0.000001
     6  O    0.126142  -0.024221  -0.000596  -0.003248   0.000178  -0.000184
     7  H    0.375080   0.000024   0.000033  -0.000078  -0.000010   0.000010
     8  O    0.000024   7.720241   0.342184   0.004828   0.008275   0.000736
     9  H    0.000033   0.342184   0.498218  -0.001431  -0.000173   0.000003
    10  C   -0.000078   0.004828  -0.001431   4.934970   0.409928   0.412395
    11  H   -0.000010   0.008275  -0.000173   0.409928   0.539879  -0.018953
    12  H    0.000010   0.000736   0.000003   0.412395  -0.018953   0.556628
    13  C   -0.000026  -0.017360   0.001090   0.270926  -0.020286  -0.030027
    14  H    0.000181   0.007329  -0.000283  -0.060365  -0.001757   0.007544
    15  H    0.000004  -0.000108  -0.000002  -0.042854   0.004129  -0.009123
    16  O    0.001060  -0.025871   0.001867   0.196727  -0.023457  -0.029912
    17  H   -0.000303   0.001306  -0.000070  -0.037442   0.008362  -0.004039
    18  O    0.000225   0.000327   0.000020  -0.070825   0.004618   0.003861
    19  H    0.000190   0.000080  -0.000056   0.003451  -0.000684  -0.000674
              13         14         15         16         17         18
     1  Si   0.002158  -0.004616   0.000548   0.201385  -0.015573  -0.005910
     2  O   -0.000419  -0.000081   0.000001  -0.029358   0.001679  -0.000015
     3  H    0.000104  -0.000021  -0.000001   0.004927  -0.000268   0.000006
     4  O    0.000064   0.000151  -0.000002   0.000253   0.000080  -0.000100
     5  H   -0.000001  -0.000012   0.000000   0.000080  -0.000072   0.000011
     6  O    0.003396   0.001063   0.000125  -0.030690   0.005095  -0.035881
     7  H   -0.000026   0.000181   0.000004   0.001060  -0.000303   0.000225
     8  O   -0.017360   0.007329  -0.000108  -0.025871   0.001306   0.000327
     9  H    0.001090  -0.000283  -0.000002   0.001867  -0.000070   0.000020
    10  C    0.270926  -0.060365  -0.042854   0.196727  -0.037442  -0.070825
    11  H   -0.020286  -0.001757   0.004129  -0.023457   0.008362   0.004618
    12  H   -0.030027   0.007544  -0.009123  -0.029912  -0.004039   0.003861
    13  C    4.690212   0.440409   0.426448  -0.037159  -0.010550   0.265641
    14  H    0.440409   0.600775  -0.028393   0.000339   0.002897  -0.040862
    15  H    0.426448  -0.028393   0.590118   0.003662   0.000827  -0.028019
    16  O   -0.037159   0.000339   0.003662   7.707219   0.312174  -0.010296
    17  H   -0.010550   0.002897   0.000827   0.312174   0.490866   0.043811
    18  O    0.265641  -0.040862  -0.028019  -0.010296   0.043811   7.962519
    19  H   -0.034155  -0.011996   0.004517   0.000919  -0.002809   0.333814
              19
     1  Si  -0.004401
     2  O   -0.000039
     3  H   -0.000030
     4  O    0.000411
     5  H   -0.000061
     6  O    0.061308
     7  H    0.000190
     8  O    0.000080
     9  H   -0.000056
    10  C    0.003451
    11  H   -0.000684
    12  H   -0.000674
    13  C   -0.034155
    14  H   -0.011996
    15  H    0.004517
    16  O    0.000919
    17  H   -0.002809
    18  O    0.333814
    19  H    0.413087
 Mulliken charges:
               1
     1  Si   0.794520
     2  O   -0.404490
     3  H    0.178427
     4  O   -0.336646
     5  H    0.193097
     6  O   -0.677752
     7  H    0.276851
     8  O   -0.386264
     9  H    0.174070
    10  C   -0.010287
    11  H    0.099255
    12  H    0.109516
    13  C    0.049536
    14  H    0.087698
    15  H    0.078123
    16  O   -0.243868
    17  H    0.204028
    18  O   -0.422945
    19  H    0.237130
 Sum of Mulliken charges =  -0.00000
 Mulliken charges with hydrogens summed into heavy atoms:
               1
     1  Si   0.794520
     2  O   -0.226063
     4  O    0.133302
     6  O   -0.677752
     8  O   -0.212194
    10  C    0.198485
    13  C    0.215356
    16  O   -0.039840
    18  O   -0.185815
 Electronic spatial extent (au):  <R**2>=           1436.8704
 Charge=             -0.0000 electrons
 Dipole moment (field-independent basis, Debye):
    X=              0.8424    Y=             -2.9657    Z=              0.8372  Tot=              3.1947
 Quadrupole moment (field-independent basis, Debye-Ang):
   XX=            -54.6266   YY=            -62.1182   ZZ=            -57.3925
   XY=              6.9217   XZ=             -1.5339   YZ=              3.0339
 Traceless Quadrupole moment (field-independent basis, Debye-Ang):
   XX=              3.4192   YY=             -4.0724   ZZ=              0.6533
   XY=              6.9217   XZ=             -1.5339   YZ=              3.0339
 Octapole moment (field-independent basis, Debye-Ang**2):
  XXX=             38.3114  YYY=             -8.9866  ZZZ=              1.4325  XYY=             12.3842
  XXY=             -6.2247  XXZ=              8.3237  XZZ=              5.8965  YZZ=             -5.2999
  YYZ=             -5.6333  XYZ=             -5.9143
 Hexadecapole moment (field-independent basis, Debye-Ang**3):
 XXXX=          -1001.7707 YYYY=           -370.7735 ZZZZ=           -229.2218 XXXY=             73.1738
 XXXZ=            -30.6153 YYYX=              2.1785 YYYZ=             16.1089 ZZZX=             28.4059
 ZZZY=              4.6997 XXYY=           -245.9867 XXZZ=           -224.9651 YYZZ=           -102.3583
 XXYZ=             -3.4588 YYXZ=            -12.2633 ZZXY=             -6.9295
 N-N= 6.713934206089D+02 E-N=-3.291961431289D+03  KE= 8.205040662991D+02
  Exact polarizability:       0.000       0.000       0.000       0.000       0.000       0.000
 Approx polarizability:      80.862       1.281      73.810       0.172      -1.178      73.281
   1 Symmetry operations used in ECPInt.
 ECPInt:  NShTT=   13203 NPrTT=   36019 LenC2=   12676 LenP2D=   27298.
 LDataN:  DoStor=T MaxTD1= 7 Len=  274
 Calling FoFJK, ICntrl=      2127 FMM=F ISym2X=0 I1Cent= 0 IOpClX= 0 NMat=1 NMatS=1 NMatT=0.
 -------------------------------------------------------------------
 Center     Atomic                   Forces (Hartrees/Bohr)
 Number     Number              X              Y              Z
 -------------------------------------------------------------------
      1       14          -0.004917524    0.001603230   -0.001835012
      2        8           0.000543054    0.000371365    0.000649157
      3        1           0.000021380   -0.000042007    0.000054194
      4        8           0.004062748    0.000375994    0.001011444
      5        1           0.000284407   -0.000087778    0.000036450
      6        8          -0.002631941   -0.002118164   -0.000859229
      7        1           0.001924395    0.000775911    0.000887680
      8        8           0.000834205   -0.000008376    0.000042091
      9        1          -0.000183920   -0.000082842   -0.000005910
     10        6          -0.000028279   -0.000054152    0.000004016
     11        1          -0.000015839   -0.000005584    0.000003003
     12        1          -0.000016563   -0.000003879    0.000009913
     13        6          -0.000043780    0.000074331   -0.000095938
     14        1          -0.000000085   -0.000003548   -0.000007543
     15        1          -0.000003236   -0.000017068   -0.000000954
     16        8          -0.000280624   -0.000576712   -0.000300478
     17        1           0.000122263   -0.000008293    0.000298107
     18        8           0.000178305    0.000049185    0.000150352
     19        1           0.000151031   -0.000241613   -0.000041344
 -------------------------------------------------------------------
 Cartesian Forces:  Max     0.004917524 RMS     0.001088132
 IRC-IRC-IRC-IRC-IRC-IRC-IRC-IRC-IRC-IRC-IRC-IRC-IRC-IRC-IRC-IRC-IRC-IRC
 Pt  1 Step number   1 out of a maximum of 100
 Modified Bulirsch-Stoer Extrapolation Cycles:
    EPS =    0.000010000000000
      PEZero:  N= 2 I= 1 D=  2.87D-04 Err=  6.52D-04
      PEZero:  N= 3 I= 2 D=  2.87D-04 Err=  4.35D-04
      PEZero:  N= 3 I= 1 D=  5.73D-04 Err=  4.12D-07
 Maximum DWI energy   std dev =  0.000004481 at pt    62
 Maximum DWI gradient std dev =  0.193834727 at pt     1
 CORRECTOR INTEGRATION CONVERGENCE:
   Recorrection delta-x convergence threshold:    0.010000
   Delta-x Convergence Met
 Point Number:   1          Path Number:   1
   CHANGE IN THE REACTION COORDINATE =    0.10965
   NET REACTION COORDINATE UP TO THIS POINT =    0.10965
  # OF POINTS ALONG THE PATH =   1
  # OF STEPS =   1

 Calculating another point on the path.
 IRC-IRC-IRC-IRC-IRC-IRC-IRC-IRC-IRC-IRC-IRC-IRC-IRC-IRC-IRC-IRC-IRC-IRC
                          Input orientation:                          
 ---------------------------------------------------------------------
 Center     Atomic      Atomic             Coordinates (Angstroms)
 Number     Number       Type             X           Y           Z
 ---------------------------------------------------------------------
      1         14           0        0.883698   -0.091000   -0.018642
      2          8           0        1.771376   -0.953719   -1.100179
      3          1           0        1.399784   -1.780443   -1.395970
      4          8           0        2.411561    0.985238    0.516833
      5          1           0        3.157790    0.898283   -0.079667
      6          8           0        0.323340    1.354835   -0.365238
      7          1           0        1.700763    1.647302    0.118711
      8          8           0        0.666913   -0.836431    1.429059
      9          1           0        1.300101   -0.600234    2.102200
     10          6           0       -1.961605   -1.065730    0.209487
     11          1           0       -1.670876   -1.663003    1.067642
     12          1           0       -2.728685   -1.582755   -0.366878
     13          6           0       -2.410261    0.340789    0.595919
     14          1           0       -1.778195    0.719064    1.402835
     15          1           0       -3.438648    0.294630    0.959292
     16          8           0       -0.797683   -0.977285   -0.649895
     17          1           0       -1.065383   -0.354830   -1.344243
     18          8           0       -2.353929    1.186323   -0.523328
     19          1           0       -1.436079    1.534651   -0.541626
 ---------------------------------------------------------------------
                    Distance matrix (angstroms):
                    1          2          3          4          5
     1  Si   0.000000
     2  O    1.643770   0.000000
     3  H    2.239999   0.953439   0.000000
     4  O    1.944064   2.604634   3.511623   0.000000
     5  H    2.480706   2.528537   3.463930   0.959287   0.000000
     6  O    1.588889   2.822475   3.471470   2.296806   2.885152
     7  H    1.925657   2.873323   3.759558   1.049792   1.650246
     8  O    1.642711   2.762362   3.067417   2.682244   3.389684
     9  H    2.220513   3.256114   3.693239   2.502490   3.233745
    10  C    3.016271   3.957641   3.793052   4.839991   5.490826
    11  H    3.190150   4.129363   3.938545   4.897230   5.585027
    12  H    3.923763   4.602605   4.259386   5.813576   6.394422
    13  C    3.378505   4.694528   4.794131   4.865341   5.636525
    14  H    3.124496   4.654324   4.917356   4.290676   5.156926
    15  H    4.448341   5.739699   5.767462   5.907424   6.704986
    16  O    2.002754   2.608328   2.455718   3.938527   4.414598
    17  H    2.371865   2.909542   2.848174   4.165156   4.583081
    18  O    3.516887   4.683020   4.863493   4.881830   5.537044
    19  H    2.880559   4.097772   4.445433   4.028216   4.660687
                    6          7          8          9         10
     6  O    0.000000
     7  H    1.488972   0.000000
     8  O    2.852927   2.992455   0.000000
     9  H    3.296150   3.024265   0.953852   0.000000
    10  C    3.377931   4.558698   2.906724   3.799707   0.000000
    11  H    3.890679   4.819392   2.505814   3.320616   1.085214
    12  H    4.236070   5.503551   3.913116   4.826263   1.089919
    13  C    3.069965   4.339957   3.398378   4.113538   1.526079
    14  H    2.818995   3.822793   2.898069   3.421339   2.154811
    15  H    4.126859   5.380506   4.284345   4.956083   2.143465
    16  O    2.603172   3.704246   2.546946   3.480932   1.449509
    17  H    2.410385   3.714879   3.305147   4.187327   1.929423
    18  O    2.687221   4.131010   4.126601   4.841190   2.400558
    19  H    1.777358   3.207571   3.732052   4.362824   2.757233
                   11         12         13         14         15
    11  H    0.000000
    12  H    1.784166   0.000000
    13  C    2.187326   2.174487   0.000000
    14  H    2.407927   3.055108   1.092572   0.000000
    15  H    2.639902   2.405691   1.091673   1.770305   0.000000
    16  O    2.045144   2.043395   2.426888   2.837729   3.343942
    17  H    2.809828   2.286836   2.461060   3.034434   3.370529
    18  O    3.334127   2.798698   1.403858   2.063954   2.042032
    19  H    3.587460   3.379288   1.915294   2.136154   2.792972
                   16         17         18         19
    16  O    0.000000
    17  H    0.970172   0.000000
    18  O    2.668168   2.170116   0.000000
    19  H    2.594050   2.086085   0.981894   0.000000
 Symmetry turned off by external request.
 Stoichiometry    C2H10O6Si
 Framework group  C1[X(C2H10O6Si)]
 Deg. of freedom    51
 Full point group                 C1      NOp   1
 Rotational constants (GHZ):           2.2343109           0.9700198           0.8818738
 Standard basis: def2TZVPP (5D, 7F)
   430 basis functions,   647 primitive gaussians,   486 cartesian basis functions
    42 alpha electrons       42 beta electrons
       nuclear repulsion energy       671.2731299937 Hartrees.
 NAtoms=   19 NActive=   19 NUniq=   19 SFac= 1.00D+00 NAtFMM=   60 NAOKFM=F Big=F
 Integral buffers will be    131072 words long.
 Raffenetti 2 integral format.
 Two-electron integral symmetry is turned off.
 Nuclear repulsion after empirical dispersion term =      671.2627406314 Hartrees.
 One-electron integrals computed using PRISM.
   1 Symmetry operations used in ECPInt.
 ECPInt:  NShTT=   13203 NPrTT=   36019 LenC2=   12674 LenP2D=   27291.
 LDataN:  DoStor=T MaxTD1= 6 Len=  172
 NBasis=   430 RedAO= T EigKep=  2.04D-04  NBF=   430
 NBsUse=   430 1.00D-06 EigRej= -1.00D+00 NBFU=   430
 Initial guess from the checkpoint file:  "IRC_of_TSOpt_FromFrozenBoth21_Reverse.chk"
 B after Tr=     0.000568    0.000021    0.000259
         Rot=    1.000000   -0.000051    0.000035    0.000056 Ang=  -0.01 deg.
 ExpMin= 7.01D-02 ExpMax= 4.48D+04 ExpMxC= 1.53D+03 IAcc=3 IRadAn=         5 AccDes= 0.00D+00
 Harris functional with IExCor= 4639 and IRadAn=       5 diagonalized for initial guess.
 HarFok:  IExCor= 4639 AccDes= 0.00D+00 IRadAn=         5 IDoV= 1 UseB2=F ITyADJ=14
 ICtDFT=  3500011 ScaDFX=  1.000000  1.000000  1.000000  1.000000
 FoFCou: FMM=F IPFlag=           0 FMFlag=      100000 FMFlg1=           0
         NFxFlg=           0 DoJE=T BraDBF=F KetDBF=T FulRan=T
         wScrn=  0.000000 ICntrl=       500 IOpCl=  0 I1Cent=   200000004 NGrid=           0
         NMat0=    1 NMatS0=      1 NMatT0=    0 NMatD0=    1 NMtDS0=    0 NMtDT0=    0
 Symmetry not used in FoFCou.
 Requested convergence on RMS density matrix=1.00D-08 within 128 cycles.
 Requested convergence on MAX density matrix=1.00D-06.
 Requested convergence on             energy=1.00D-06.
 No special actions if energy rises.
 Integral accuracy reduced to 1.0D-05 until final iterations.
 Initial convergence to 1.0D-05 achieved.  Increase integral accuracy.
 SCF Done:  E(RwB97XD) =  -823.305247732     A.U. after   11 cycles
            NFock= 11  Conv=0.76D-08     -V/T= 2.0034
 DoSCS=F DFT=T ScalE2(SS,OS)=  1.000000  1.000000
 Range of M.O.s used for correlation:     1   430
 NBasis=   430 NAE=    42 NBE=    42 NFC=     0 NFV=     0
 NROrb=    430 NOA=    42 NOB=    42 NVA=   388 NVB=   388

 **** Warning!!: The largest alpha MO coefficient is  0.12622666D+02

 Symmetrizing basis deriv contribution to polar:
 IMax=3 JMax=2 DiffMx= 0.00D+00
   1 Symmetry operations used in ECPInt.
 ECPInt:  NShTT=   13203 NPrTT=   36019 LenC2=   12674 LenP2D=   27291.
 LDataN:  DoStor=T MaxTD1= 7 Len=  274
 Calling FoFJK, ICntrl=      2127 FMM=F ISym2X=0 I1Cent= 0 IOpClX= 0 NMat=1 NMatS=1 NMatT=0.
 -------------------------------------------------------------------
 Center     Atomic                   Forces (Hartrees/Bohr)
 Number     Number              X              Y              Z
 -------------------------------------------------------------------
      1       14          -0.007880409    0.002213993   -0.002892947
      2        8           0.000811214    0.000719990    0.001159402
      3        1           0.000071725   -0.000009226    0.000127011
      4        8           0.007938025   -0.000800509    0.002519023
      5        1           0.000387053   -0.000134250    0.000075358
      6        8          -0.004164478   -0.003217074   -0.001243427
      7        1           0.001773999    0.002607317    0.000432531
      8        8           0.001175474    0.000058352   -0.000327116
      9        1          -0.000098797   -0.000041251    0.000143143
     10        6          -0.000095361   -0.000133576    0.000035820
     11        1          -0.000021561   -0.000012450    0.000010236
     12        1          -0.000026205   -0.000003428    0.000016174
     13        6          -0.000070525    0.000076753   -0.000142555
     14        1          -0.000009248   -0.000007492   -0.000005307
     15        1          -0.000004158   -0.000019832   -0.000009157
     16        8          -0.000433196   -0.001186723   -0.000256810
     17        1           0.000099704    0.000166384    0.000191203
     18        8           0.000320848    0.000065156    0.000217464
     19        1           0.000225898   -0.000342134   -0.000050045
 -------------------------------------------------------------------
 Cartesian Forces:  Max     0.007938025 RMS     0.001831037
 IRC-IRC-IRC-IRC-IRC-IRC-IRC-IRC-IRC-IRC-IRC-IRC-IRC-IRC-IRC-IRC-IRC-IRC
 Pt  2 Step number   1 out of a maximum of 100
 Modified Bulirsch-Stoer Extrapolation Cycles:
    EPS =    0.000010000000000
      PEZero:  N= 2 I= 1 D=  5.73D-04 Err=  6.53D-05
      PEZero:  N= 3 I= 2 D=  5.73D-04 Err=  4.34D-05
      PEZero:  N= 3 I= 1 D=  1.15D-03 Err=  6.68D-07
 Maximum DWI energy   std dev =  0.000007586 at pt    37
 Maximum DWI gradient std dev =  0.219555996 at pt    27
 CORRECTOR INTEGRATION CONVERGENCE:
   Recorrection delta-x convergence threshold:    0.010000
   Delta-x Convergence NOT Met
 IRC-IRC-IRC-IRC-IRC-IRC-IRC-IRC-IRC-IRC-IRC-IRC-IRC-IRC-IRC-IRC-IRC-IRC
                          Input orientation:                          
 ---------------------------------------------------------------------
 Center     Atomic      Atomic             Coordinates (Angstroms)
 Number     Number       Type             X           Y           Z
 ---------------------------------------------------------------------
      1         14           0        0.883414   -0.090887   -0.018751
      2          8           0        1.771423   -0.953637   -1.100064
      3          1           0        1.399968   -1.780471   -1.395738
      4          8           0        2.412503    0.984930    0.517148
      5          1           0        3.158746    0.897556   -0.079223
      6          8           0        0.323017    1.354716   -0.365342
      7          1           0        1.696930    1.651928    0.117216
      8          8           0        0.667001   -0.836415    1.429003
      9          1           0        1.300062   -0.600191    2.102282
     10          6           0       -1.961635   -1.065753    0.209501
     11          1           0       -1.670902   -1.663011    1.067659
     12          1           0       -2.728724   -1.582755   -0.366866
     13          6           0       -2.410272    0.340789    0.595913
     14          1           0       -1.778230    0.719048    1.402854
     15          1           0       -3.438655    0.294626    0.959255
     16          8           0       -0.797720   -0.977382   -0.649926
     17          1           0       -1.065343   -0.354641   -1.344072
     18          8           0       -2.353873    1.186334   -0.523310
     19          1           0       -1.435969    1.534309   -0.541728
 ---------------------------------------------------------------------
                    Distance matrix (angstroms):
                    1          2          3          4          5
     1  Si   0.000000
     2  O    1.643818   0.000000
     3  H    2.240003   0.953444   0.000000
     4  O    1.944912   2.604689   3.511667   0.000000
     5  H    2.481493   2.528577   3.463862   0.959255   0.000000
     6  O    1.588691   2.822444   3.471446   2.298148   2.886558
     7  H    1.928134   2.876855   3.762789   1.056825   1.656675
     8  O    1.642753   2.762185   3.067188   2.682453   3.389719
     9  H    2.220758   3.256091   3.693126   2.502555   3.233715
    10  C    3.016085   3.957682   3.793150   4.840768   5.491470
    11  H    3.190046   4.129387   3.938574   4.897842   5.585458
    12  H    3.923569   4.602683   4.259550   5.814354   6.395075
    13  C    3.378243   4.694513   4.794199   4.866239   5.637354
    14  H    3.124309   4.654300   4.917383   4.291552   5.157727
    15  H    4.448078   5.739674   5.767520   5.908302   6.705792
    16  O    2.002616   2.608387   2.455814   3.939323   4.415282
    17  H    2.371434   2.909566   2.848406   4.165815   4.583751
    18  O    3.516519   4.682968   4.863578   4.882772   5.538011
    19  H    2.879984   4.097436   4.445182   4.029116   4.661627
                    6          7          8          9         10
     6  O    0.000000
     7  H    1.486215   0.000000
     8  O    2.852903   2.995562   0.000000
     9  H    3.296278   3.028206   0.953873   0.000000
    10  C    3.377683   4.558443   2.906804   3.799742   0.000000
    11  H    3.890486   4.820213   2.505917   3.320641   1.085209
    12  H    4.235783   5.503083   3.913198   4.826308   1.089915
    13  C    3.069678   4.337896   3.398449   4.113535   1.526090
    14  H    2.818834   3.820977   2.898156   3.421327   2.154819
    15  H    4.126563   5.378246   4.284428   4.956072   2.143443
    16  O    2.603021   3.704735   2.547003   3.481036   1.449524
    17  H    2.409846   3.713736   3.305006   4.187218   1.929406
    18  O    2.686828   4.127475   4.126587   4.841141   2.400575
    19  H    1.776906   3.203607   3.731835   4.362654   2.756989
                   11         12         13         14         15
    11  H    0.000000
    12  H    1.784179   0.000000
    13  C    2.187334   2.174483   0.000000
    14  H    2.407920   3.055101   1.092570   0.000000
    15  H    2.639895   2.405651   1.091659   1.770289   0.000000
    16  O    2.045148   2.043373   2.426935   2.837812   3.343950
    17  H    2.809801   2.286926   2.460894   3.034241   3.370382
    18  O    3.334127   2.798722   1.403847   2.063935   2.042032
    19  H    3.587224   3.379035   1.915198   2.136162   2.792940
                   16         17         18         19
    16  O    0.000000
    17  H    0.970189   0.000000
    18  O    2.668204   2.169923   0.000000
    19  H    2.593774   2.085487   0.981821   0.000000
 Symmetry turned off by external request.
 Stoichiometry    C2H10O6Si
 Framework group  C1[X(C2H10O6Si)]
 Deg. of freedom    51
 Full point group                 C1      NOp   1
 Rotational constants (GHZ):           2.2343356           0.9699248           0.8817950
 Standard basis: def2TZVPP (5D, 7F)
   430 basis functions,   647 primitive gaussians,   486 cartesian basis functions
    42 alpha electrons       42 beta electrons
       nuclear repulsion energy       671.2272400423 Hartrees.
 NAtoms=   19 NActive=   19 NUniq=   19 SFac= 1.00D+00 NAtFMM=   60 NAOKFM=F Big=F
 Integral buffers will be    131072 words long.
 Raffenetti 2 integral format.
 Two-electron integral symmetry is turned off.
 Nuclear repulsion after empirical dispersion term =      671.2168509168 Hartrees.
 One-electron integrals computed using PRISM.
   1 Symmetry operations used in ECPInt.
 ECPInt:  NShTT=   13203 NPrTT=   36019 LenC2=   12674 LenP2D=   27289.
 LDataN:  DoStor=T MaxTD1= 6 Len=  172
 NBasis=   430 RedAO= T EigKep=  2.04D-04  NBF=   430
 NBsUse=   430 1.00D-06 EigRej= -1.00D+00 NBFU=   430
 Initial guess from the checkpoint file:  "IRC_of_TSOpt_FromFrozenBoth21_Reverse.chk"
 B after Tr=    -0.000017    0.000043   -0.000002
         Rot=    1.000000    0.000004    0.000001   -0.000007 Ang=   0.00 deg.
 ExpMin= 7.01D-02 ExpMax= 4.48D+04 ExpMxC= 1.53D+03 IAcc=3 IRadAn=         5 AccDes= 0.00D+00
 Harris functional with IExCor= 4639 and IRadAn=       5 diagonalized for initial guess.
 HarFok:  IExCor= 4639 AccDes= 0.00D+00 IRadAn=         5 IDoV= 1 UseB2=F ITyADJ=14
 ICtDFT=  3500011 ScaDFX=  1.000000  1.000000  1.000000  1.000000
 FoFCou: FMM=F IPFlag=           0 FMFlag=      100000 FMFlg1=           0
         NFxFlg=           0 DoJE=T BraDBF=F KetDBF=T FulRan=T
         wScrn=  0.000000 ICntrl=       500 IOpCl=  0 I1Cent=   200000004 NGrid=           0
         NMat0=    1 NMatS0=      1 NMatT0=    0 NMatD0=    1 NMtDS0=    0 NMtDT0=    0
 Symmetry not used in FoFCou.
 Requested convergence on RMS density matrix=1.00D-08 within 128 cycles.
 Requested convergence on MAX density matrix=1.00D-06.
 Requested convergence on             energy=1.00D-06.
 No special actions if energy rises.
 Integral accuracy reduced to 1.0D-05 until final iterations.
 Initial convergence to 1.0D-05 achieved.  Increase integral accuracy.
 SCF Done:  E(RwB97XD) =  -823.305264282     A.U. after    9 cycles
            NFock=  9  Conv=0.73D-08     -V/T= 2.0034
 DoSCS=F DFT=T ScalE2(SS,OS)=  1.000000  1.000000
 Range of M.O.s used for correlation:     1   430
 NBasis=   430 NAE=    42 NBE=    42 NFC=     0 NFV=     0
 NROrb=    430 NOA=    42 NOB=    42 NVA=   388 NVB=   388

 **** Warning!!: The largest alpha MO coefficient is  0.12600084D+02

 Symmetrizing basis deriv contribution to polar:
 IMax=3 JMax=2 DiffMx= 0.00D+00
   1 Symmetry operations used in ECPInt.
 ECPInt:  NShTT=   13203 NPrTT=   36019 LenC2=   12674 LenP2D=   27289.
 LDataN:  DoStor=T MaxTD1= 7 Len=  274
 Calling FoFJK, ICntrl=      2127 FMM=F ISym2X=0 I1Cent= 0 IOpClX= 0 NMat=1 NMatS=1 NMatT=0.
 -------------------------------------------------------------------
 Center     Atomic                   Forces (Hartrees/Bohr)
 Number     Number              X              Y              Z
 -------------------------------------------------------------------
      1       14          -0.006844257    0.002031064   -0.002515927
      2        8           0.000684920    0.000721801    0.001105870
      3        1           0.000073412   -0.000011247    0.000116818
      4        8           0.005686720    0.000929329    0.001511722
      5        1           0.000341057   -0.000096481    0.000029371
      6        8          -0.003753641   -0.002513773   -0.001136288
      7        1           0.002904302    0.000161756    0.001159002
      8        8           0.001051991    0.000087596   -0.000348681
      9        1          -0.000083740   -0.000017987    0.000083539
     10        6          -0.000120017   -0.000141630    0.000048765
     11        1          -0.000018046   -0.000010827    0.000010040
     12        1          -0.000023213   -0.000003873    0.000015161
     13        6          -0.000069100    0.000048534   -0.000120329
     14        1          -0.000010648   -0.000007554    0.000000381
     15        1          -0.000006679   -0.000014913   -0.000010222
     16        8          -0.000388332   -0.001046280   -0.000253389
     17        1           0.000066010    0.000114105    0.000159160
     18        8           0.000317932    0.000045248    0.000195090
     19        1           0.000191330   -0.000274867   -0.000050086
 -------------------------------------------------------------------
 Cartesian Forces:  Max     0.006844257 RMS     0.001507692
 IRC-IRC-IRC-IRC-IRC-IRC-IRC-IRC-IRC-IRC-IRC-IRC-IRC-IRC-IRC-IRC-IRC-IRC
 Error in corrector energy =          -0.0000059820
 Magnitude of corrector gradient =     0.0118252788
 Magnitude of analytic gradient =      0.0113828255
 Magnitude of difference =             0.0013347819
 Angle between gradients (degrees)=    6.2221
 Pt  2 Step number   2 out of a maximum of 100
 Modified Bulirsch-Stoer Extrapolation Cycles:
    EPS =    0.000010000000000
      PEZero:  N= 2 I= 1 D=  5.73D-04 Err=  4.85D-05
      PEZero:  N= 3 I= 2 D=  5.73D-04 Err=  3.23D-05
      PEZero:  N= 3 I= 1 D=  1.15D-03 Err=  3.37D-07
 Maximum DWI energy   std dev =  0.000010629 at pt    34
 Maximum DWI gradient std dev =  0.159471997 at pt    27
 CORRECTOR INTEGRATION CONVERGENCE:
   Recorrection delta-x convergence threshold:    0.010000
   Delta-x Convergence Met
 Point Number:   2          Path Number:   1
   CHANGE IN THE REACTION COORDINATE =    0.10976
   NET REACTION COORDINATE UP TO THIS POINT =    0.21941
  # OF POINTS ALONG THE PATH =   2
  # OF STEPS =   2

 Calculating another point on the path.
 IRC-IRC-IRC-IRC-IRC-IRC-IRC-IRC-IRC-IRC-IRC-IRC-IRC-IRC-IRC-IRC-IRC-IRC
                          Input orientation:                          
 ---------------------------------------------------------------------
 Center     Atomic      Atomic             Coordinates (Angstroms)
 Number     Number       Type             X           Y           Z
 ---------------------------------------------------------------------
      1         14           0        0.879683   -0.089858   -0.020101
      2          8           0        1.772055   -0.952957   -1.099028
      3          1           0        1.401207   -1.780360   -1.393918
      4          8           0        2.417995    0.985657    0.518612
      5          1           0        3.163534    0.896181   -0.078705
      6          8           0        0.319468    1.352273   -0.366414
      7          1           0        1.737492    1.659911    0.132223
      8          8           0        0.667983   -0.836310    1.428663
      9          1           0        1.299030   -0.600323    2.103685
     10          6           0       -1.961795   -1.065948    0.209570
     11          1           0       -1.671184   -1.663188    1.067815
     12          1           0       -2.729098   -1.582852   -0.366610
     13          6           0       -2.410368    0.340837    0.595757
     14          1           0       -1.778381    0.718937    1.402879
     15          1           0       -3.438791    0.294375    0.959105
     16          8           0       -0.798094   -0.978420   -0.650130
     17          1           0       -1.064543   -0.352612   -1.342189
     18          8           0       -2.353616    1.186353   -0.523138
     19          1           0       -1.433049    1.530249   -0.542395
 ---------------------------------------------------------------------
                    Distance matrix (angstroms):
                    1          2          3          4          5
     1  Si   0.000000
     2  O    1.644795   0.000000
     3  H    2.239902   0.953460   0.000000
     4  O    1.952780   2.606190   3.513187   0.000000
     5  H    2.488309   2.529147   3.464023   0.959491   0.000000
     6  O    1.585407   2.821493   3.469772   2.306836   2.894738
     7  H    1.954668   2.888642   3.778579   1.032956   1.631370
     8  O    1.643450   2.760762   3.065259   2.685200   3.391381
     9  H    2.224161   3.256605   3.692717   2.505967   3.237086
    10  C    3.013221   3.958135   3.793592   4.846354   5.495639
    11  H    3.188393   4.129835   3.938711   4.902998   5.589220
    12  H    3.920766   4.603649   4.260727   5.820088   6.399344
    13  C    3.374791   4.694557   4.794412   4.871841   5.641958
    14  H    3.121590   4.654069   4.917147   4.296817   5.162270
    15  H    4.444738   5.739745   5.767740   5.913869   6.710433
    16  O    2.000354   2.609181   2.456268   3.945477   4.419859
    17  H    2.365792   2.909610   2.849748   4.169126   4.586121
    18  O    3.512262   4.682890   4.863984   4.888128   5.542622
    19  H    2.871632   4.092536   4.440522   4.031483   4.663221
                    6          7          8          9         10
     6  O    0.000000
     7  H    1.534298   0.000000
     8  O    2.851958   3.009274   0.000000
     9  H    3.297508   3.031100   0.953711   0.000000
    10  C    3.373976   4.595761   2.907688   3.799665   0.000000
    11  H    3.887508   4.851535   2.507118   3.320373   1.085235
    12  H    4.231869   5.542091   3.914140   4.826338   1.089921
    13  C    3.066069   4.377164   3.399360   4.113302   1.526238
    14  H    2.816466   3.855043   2.898992   3.420823   2.154865
    15  H    4.123186   5.416856   4.285385   4.955552   2.143315
    16  O    2.600303   3.741933   2.547736   3.482009   1.449464
    17  H    2.402968   3.751738   3.303518   4.185915   1.929214
    18  O    2.682810   4.170242   4.126834   4.840892   2.400677
    19  H    1.770300   3.244111   3.728272   4.359511   2.754136
                   11         12         13         14         15
    11  H    0.000000
    12  H    1.784156   0.000000
    13  C    2.187544   2.174469   0.000000
    14  H    2.407961   3.055026   1.092617   0.000000
    15  H    2.639755   2.405237   1.091712   1.770353   0.000000
    16  O    2.045124   2.043159   2.427365   2.838456   3.344088
    17  H    2.809581   2.288229   2.459218   3.032025   3.369214
    18  O    3.334177   2.798926   1.403583   2.063714   2.042125
    19  H    3.584345   3.376691   1.914483   2.135783   2.793723
                   16         17         18         19
    16  O    0.000000
    17  H    0.970349   0.000000
    18  O    2.668711   2.168171   0.000000
    19  H    2.590019   2.078613   0.982893   0.000000
 Symmetry turned off by external request.
 Stoichiometry    C2H10O6Si
 Framework group  C1[X(C2H10O6Si)]
 Deg. of freedom    51
 Full point group                 C1      NOp   1
 Rotational constants (GHZ):           2.2350692           0.9691598           0.8812269
 Standard basis: def2TZVPP (5D, 7F)
   430 basis functions,   647 primitive gaussians,   486 cartesian basis functions
    42 alpha electrons       42 beta electrons
       nuclear repulsion energy       671.0809372058 Hartrees.
 NAtoms=   19 NActive=   19 NUniq=   19 SFac= 1.00D+00 NAtFMM=   60 NAOKFM=F Big=F
 Integral buffers will be    131072 words long.
 Raffenetti 2 integral format.
 Two-electron integral symmetry is turned off.
 Nuclear repulsion after empirical dispersion term =      671.0705711543 Hartrees.
 One-electron integrals computed using PRISM.
   1 Symmetry operations used in ECPInt.
 ECPInt:  NShTT=   13203 NPrTT=   36019 LenC2=   12672 LenP2D=   27280.
 LDataN:  DoStor=T MaxTD1= 6 Len=  172
 NBasis=   430 RedAO= T EigKep=  2.04D-04  NBF=   430
 NBsUse=   430 1.00D-06 EigRej= -1.00D+00 NBFU=   430
 Initial guess from the checkpoint file:  "IRC_of_TSOpt_FromFrozenBoth21_Reverse.chk"
 B after Tr=     0.000499    0.000039    0.000212
         Rot=    1.000000   -0.000029    0.000025    0.000041 Ang=  -0.01 deg.
 ExpMin= 7.01D-02 ExpMax= 4.48D+04 ExpMxC= 1.53D+03 IAcc=3 IRadAn=         5 AccDes= 0.00D+00
 Harris functional with IExCor= 4639 and IRadAn=       5 diagonalized for initial guess.
 HarFok:  IExCor= 4639 AccDes= 0.00D+00 IRadAn=         5 IDoV= 1 UseB2=F ITyADJ=14
 ICtDFT=  3500011 ScaDFX=  1.000000  1.000000  1.000000  1.000000
 FoFCou: FMM=F IPFlag=           0 FMFlag=      100000 FMFlg1=           0
         NFxFlg=           0 DoJE=T BraDBF=F KetDBF=T FulRan=T
         wScrn=  0.000000 ICntrl=       500 IOpCl=  0 I1Cent=   200000004 NGrid=           0
         NMat0=    1 NMatS0=      1 NMatT0=    0 NMatD0=    1 NMtDS0=    0 NMtDT0=    0
 Symmetry not used in FoFCou.
 Requested convergence on RMS density matrix=1.00D-08 within 128 cycles.
 Requested convergence on MAX density matrix=1.00D-06.
 Requested convergence on             energy=1.00D-06.
 No special actions if energy rises.
 Integral accuracy reduced to 1.0D-05 until final iterations.
 Initial convergence to 1.0D-05 achieved.  Increase integral accuracy.
 SCF Done:  E(RwB97XD) =  -823.305701796     A.U. after   10 cycles
            NFock= 10  Conv=0.97D-08     -V/T= 2.0034
 DoSCS=F DFT=T ScalE2(SS,OS)=  1.000000  1.000000
 Range of M.O.s used for correlation:     1   430
 NBasis=   430 NAE=    42 NBE=    42 NFC=     0 NFV=     0
 NROrb=    430 NOA=    42 NOB=    42 NVA=   388 NVB=   388

 **** Warning!!: The largest alpha MO coefficient is  0.11867334D+02

 Symmetrizing basis deriv contribution to polar:
 IMax=3 JMax=2 DiffMx= 0.00D+00
   1 Symmetry operations used in ECPInt.
 ECPInt:  NShTT=   13203 NPrTT=   36019 LenC2=   12672 LenP2D=   27280.
 LDataN:  DoStor=T MaxTD1= 7 Len=  274
 Calling FoFJK, ICntrl=      2127 FMM=F ISym2X=0 I1Cent= 0 IOpClX= 0 NMat=1 NMatS=1 NMatT=0.
 -------------------------------------------------------------------
 Center     Atomic                   Forces (Hartrees/Bohr)
 Number     Number              X              Y              Z
 -------------------------------------------------------------------
      1       14          -0.008698166    0.002459287   -0.003171430
      2        8           0.000848968    0.001061830    0.001529408
      3        1           0.000115207   -0.000014934    0.000162070
      4        8           0.009504625   -0.000861846    0.002888762
      5        1           0.000505318   -0.000288559    0.000146290
      6        8          -0.004836861   -0.003057735   -0.001498378
      7        1           0.001477138    0.002338027    0.000433795
      8        8           0.001338387    0.000152718   -0.000553345
      9        1          -0.000071177    0.000017013    0.000091411
     10        6          -0.000201565   -0.000220189    0.000082189
     11        1          -0.000023911   -0.000014395    0.000014521
     12        1          -0.000033021   -0.000006993    0.000021887
     13        6          -0.000099138    0.000038101   -0.000142045
     14        1          -0.000018513   -0.000012196    0.000004986
     15        1          -0.000008418   -0.000017057   -0.000018599
     16        8          -0.000542843   -0.001406903   -0.000347360
     17        1           0.000058134    0.000118613    0.000175595
     18        8           0.000500177    0.000063745    0.000238258
     19        1           0.000185660   -0.000348527   -0.000058014
 -------------------------------------------------------------------
 Cartesian Forces:  Max     0.009504625 RMS     0.002068063
 IRC-IRC-IRC-IRC-IRC-IRC-IRC-IRC-IRC-IRC-IRC-IRC-IRC-IRC-IRC-IRC-IRC-IRC
 Pt  3 Step number   1 out of a maximum of 100
 Modified Bulirsch-Stoer Extrapolation Cycles:
    EPS =    0.000010000000000
      PEZero:  N= 2 I= 1 D=  5.73D-04 Err=  6.21D-05
      PEZero:  N= 3 I= 2 D=  5.73D-04 Err=  4.13D-05
      PEZero:  N= 3 I= 1 D=  1.15D-03 Err=  5.10D-07
 Maximum DWI energy   std dev =  0.000007358 at pt    32
 Maximum DWI gradient std dev =  0.153067475 at pt    28
 CORRECTOR INTEGRATION CONVERGENCE:
   Recorrection delta-x convergence threshold:    0.010000
   Delta-x Convergence NOT Met
 IRC-IRC-IRC-IRC-IRC-IRC-IRC-IRC-IRC-IRC-IRC-IRC-IRC-IRC-IRC-IRC-IRC-IRC
                          Input orientation:                          
 ---------------------------------------------------------------------
 Center     Atomic      Atomic             Coordinates (Angstroms)
 Number     Number       Type             X           Y           Z
 ---------------------------------------------------------------------
      1         14           0        0.879561   -0.089805   -0.020148
      2          8           0        1.772083   -0.952894   -1.098943
      3          1           0        1.401354   -1.780379   -1.393783
      4          8           0        2.418612    0.985414    0.518830
      5          1           0        3.164216    0.895418   -0.078283
      6          8           0        0.319295    1.352261   -0.366469
      7          1           0        1.734014    1.662888    0.131042
      8          8           0        0.668031   -0.836316    1.428620
      9          1           0        1.299071   -0.600190    2.103613
     10          6           0       -1.961816   -1.065956    0.209573
     11          1           0       -1.671198   -1.663189    1.067818
     12          1           0       -2.729122   -1.582839   -0.366612
     13          6           0       -2.410363    0.340843    0.595756
     14          1           0       -1.778400    0.718923    1.402907
     15          1           0       -3.438786    0.294395    0.959071
     16          8           0       -0.798110   -0.978464   -0.650156
     17          1           0       -1.064605   -0.352667   -1.342176
     18          8           0       -2.353554    1.186377   -0.523122
     19          1           0       -1.433044    1.530111   -0.542449
 ---------------------------------------------------------------------
                    Distance matrix (angstroms):
                    1          2          3          4          5
     1  Si   0.000000
     2  O    1.644784   0.000000
     3  H    2.239907   0.953468   0.000000
     4  O    1.953272   2.606191   3.513192   0.000000
     5  H    2.488713   2.529040   3.463829   0.959463   0.000000
     6  O    1.585368   2.821498   3.469822   2.307697   2.895745
     7  H    1.955730   2.890783   3.780455   1.038280   1.636553
     8  O    1.643457   2.760633   3.065123   2.685322   3.391254
     9  H    2.224149   3.256456   3.692572   2.505803   3.236708
    10  C    3.013149   3.958155   3.793687   4.846846   5.496004
    11  H    3.188350   4.129837   3.938755   4.903370   5.589387
    12  H    3.920687   4.603692   4.260861   5.820576   6.399714
    13  C    3.374670   4.694530   4.794480   4.872412   5.642501
    14  H    3.121519   4.654047   4.917196   4.297386   5.162803
    15  H    4.444615   5.739713   5.767805   5.914426   6.710960
    16  O    2.000301   2.609206   2.456358   3.945966   4.420238
    17  H    2.365721   2.909679   2.849908   4.169725   4.586728
    18  O    3.512073   4.682833   4.864055   4.888724   5.543314
    19  H    2.871423   4.092412   4.440487   4.032154   4.664021
                    6          7          8          9         10
     6  O    0.000000
     7  H    1.531482   0.000000
     8  O    2.851987   3.010987   0.000000
     9  H    3.297474   3.033435   0.953720   0.000000
    10  C    3.373880   4.594770   2.907732   3.799699   0.000000
    11  H    3.887439   4.851371   2.507168   3.320443   1.085232
    12  H    4.231744   5.540937   3.914180   4.826381   1.089916
    13  C    3.065922   4.374885   3.399393   4.113281   1.526243
    14  H    2.816404   3.853020   2.899044   3.420801   2.154874
    15  H    4.123022   5.414450   4.285433   4.955558   2.143303
    16  O    2.600259   3.741478   2.547761   3.482026   1.449482
    17  H    2.402907   3.750347   3.303522   4.185893   1.929169
    18  O    2.682569   4.166918   4.126810   4.840788   2.400689
    19  H    1.770110   3.240598   3.728218   4.359390   2.754034
                   11         12         13         14         15
    11  H    0.000000
    12  H    1.784166   0.000000
    13  C    2.187544   2.174468   0.000000
    14  H    2.407952   3.055024   1.092617   0.000000
    15  H    2.639759   2.405217   1.091700   1.770338   0.000000
    16  O    2.045132   2.043153   2.427391   2.838512   3.344092
    17  H    2.809536   2.288158   2.459188   3.032044   3.369150
    18  O    3.334175   2.798947   1.403583   2.063711   2.042121
    19  H    3.584249   3.376566   1.914425   2.135815   2.793665
                   16         17         18         19
    16  O    0.000000
    17  H    0.970326   0.000000
    18  O    2.668722   2.168155   0.000000
    19  H    2.589920   2.078500   0.982785   0.000000
 Symmetry turned off by external request.
 Stoichiometry    C2H10O6Si
 Framework group  C1[X(C2H10O6Si)]
 Deg. of freedom    51
 Full point group                 C1      NOp   1
 Rotational constants (GHZ):           2.2350835           0.9691028           0.8811765
 Standard basis: def2TZVPP (5D, 7F)
   430 basis functions,   647 primitive gaussians,   486 cartesian basis functions
    42 alpha electrons       42 beta electrons
       nuclear repulsion energy       671.0500167946 Hartrees.
 NAtoms=   19 NActive=   19 NUniq=   19 SFac= 1.00D+00 NAtFMM=   60 NAOKFM=F Big=F
 Integral buffers will be    131072 words long.
 Raffenetti 2 integral format.
 Two-electron integral symmetry is turned off.
 Nuclear repulsion after empirical dispersion term =      671.0396503704 Hartrees.
 One-electron integrals computed using PRISM.
   1 Symmetry operations used in ECPInt.
 ECPInt:  NShTT=   13203 NPrTT=   36019 LenC2=   12672 LenP2D=   27281.
 LDataN:  DoStor=T MaxTD1= 6 Len=  172
 NBasis=   430 RedAO= T EigKep=  2.04D-04  NBF=   430
 NBsUse=   430 1.00D-06 EigRej= -1.00D+00 NBFU=   430
 Initial guess from the checkpoint file:  "IRC_of_TSOpt_FromFrozenBoth21_Reverse.chk"
 B after Tr=    -0.000000    0.000026    0.000004
         Rot=    1.000000    0.000001    0.000002   -0.000003 Ang=   0.00 deg.
 ExpMin= 7.01D-02 ExpMax= 4.48D+04 ExpMxC= 1.53D+03 IAcc=3 IRadAn=         5 AccDes= 0.00D+00
 Harris functional with IExCor= 4639 and IRadAn=       5 diagonalized for initial guess.
 HarFok:  IExCor= 4639 AccDes= 0.00D+00 IRadAn=         5 IDoV= 1 UseB2=F ITyADJ=14
 ICtDFT=  3500011 ScaDFX=  1.000000  1.000000  1.000000  1.000000
 FoFCou: FMM=F IPFlag=           0 FMFlag=      100000 FMFlg1=           0
         NFxFlg=           0 DoJE=T BraDBF=F KetDBF=T FulRan=T
         wScrn=  0.000000 ICntrl=       500 IOpCl=  0 I1Cent=   200000004 NGrid=           0
         NMat0=    1 NMatS0=      1 NMatT0=    0 NMatD0=    1 NMtDS0=    0 NMtDT0=    0
 Symmetry not used in FoFCou.
 Requested convergence on RMS density matrix=1.00D-08 within 128 cycles.
 Requested convergence on MAX density matrix=1.00D-06.
 Requested convergence on             energy=1.00D-06.
 No special actions if energy rises.
 Integral accuracy reduced to 1.0D-05 until final iterations.
 Initial convergence to 1.0D-05 achieved.  Increase integral accuracy.
 SCF Done:  E(RwB97XD) =  -823.305711469     A.U. after    9 cycles
            NFock=  9  Conv=0.63D-08     -V/T= 2.0034
 DoSCS=F DFT=T ScalE2(SS,OS)=  1.000000  1.000000
 Range of M.O.s used for correlation:     1   430
 NBasis=   430 NAE=    42 NBE=    42 NFC=     0 NFV=     0
 NROrb=    430 NOA=    42 NOB=    42 NVA=   388 NVB=   388

 **** Warning!!: The largest alpha MO coefficient is  0.11863597D+02

 Symmetrizing basis deriv contribution to polar:
 IMax=3 JMax=2 DiffMx= 0.00D+00
   1 Symmetry operations used in ECPInt.
 ECPInt:  NShTT=   13203 NPrTT=   36019 LenC2=   12672 LenP2D=   27281.
 LDataN:  DoStor=T MaxTD1= 7 Len=  274
 Calling FoFJK, ICntrl=      2127 FMM=F ISym2X=0 I1Cent= 0 IOpClX= 0 NMat=1 NMatS=1 NMatT=0.
 -------------------------------------------------------------------
 Center     Atomic                   Forces (Hartrees/Bohr)
 Number     Number              X              Y              Z
 -------------------------------------------------------------------
      1       14          -0.008016677    0.002347243   -0.002925062
      2        8           0.000768744    0.001044155    0.001474332
      3        1           0.000117595   -0.000010391    0.000157031
      4        8           0.007640547    0.000636869    0.002084392
      5        1           0.000451249   -0.000219616    0.000090716
      6        8          -0.004539018   -0.002620227   -0.001408030
      7        1           0.002599488    0.000352479    0.001061786
      8        8           0.001249224    0.000171637   -0.000566793
      9        1          -0.000057291    0.000029719    0.000065487
     10        6          -0.000211721   -0.000222342    0.000093154
     11        1          -0.000022149   -0.000013614    0.000013910
     12        1          -0.000031708   -0.000008360    0.000020284
     13        6          -0.000095646    0.000022839   -0.000128711
     14        1          -0.000019294   -0.000012585    0.000006889
     15        1          -0.000011011   -0.000014146   -0.000018883
     16        8          -0.000512659   -0.001332048   -0.000324130
     17        1           0.000037758    0.000105868    0.000136803
     18        8           0.000458204    0.000037478    0.000224101
     19        1           0.000194366   -0.000294960   -0.000057277
 -------------------------------------------------------------------
 Cartesian Forces:  Max     0.008016677 RMS     0.001814609
 IRC-IRC-IRC-IRC-IRC-IRC-IRC-IRC-IRC-IRC-IRC-IRC-IRC-IRC-IRC-IRC-IRC-IRC
 Error in corrector energy =          -0.0000036834
 Magnitude of corrector gradient =     0.0140795373
 Magnitude of analytic gradient =      0.0136999992
 Magnitude of difference =             0.0011989150
 Angle between gradients (degrees)=    4.6930
 Pt  3 Step number   2 out of a maximum of 100
 Modified Bulirsch-Stoer Extrapolation Cycles:
    EPS =    0.000010000000000
      PEZero:  N= 2 I= 1 D=  5.73D-04 Err=  5.52D-05
      PEZero:  N= 3 I= 2 D=  5.73D-04 Err=  3.67D-05
      PEZero:  N= 3 I= 1 D=  1.15D-03 Err=  3.09D-07
 Maximum DWI energy   std dev =  0.000008652 at pt    32
 Maximum DWI gradient std dev =  0.107172106 at pt    28
 CORRECTOR INTEGRATION CONVERGENCE:
   Recorrection delta-x convergence threshold:    0.010000
   Delta-x Convergence Met
 Point Number:   3          Path Number:   1
   CHANGE IN THE REACTION COORDINATE =    0.10981
   NET REACTION COORDINATE UP TO THIS POINT =    0.32922
  # OF POINTS ALONG THE PATH =   3
  # OF STEPS =   2

 Calculating another point on the path.
 IRC-IRC-IRC-IRC-IRC-IRC-IRC-IRC-IRC-IRC-IRC-IRC-IRC-IRC-IRC-IRC-IRC-IRC
                          Input orientation:                          
 ---------------------------------------------------------------------
 Center     Atomic      Atomic             Coordinates (Angstroms)
 Number     Number       Type             X           Y           Z
 ---------------------------------------------------------------------
      1         14           0        0.875398   -0.088658   -0.021654
      2          8           0        1.772738   -0.951900   -1.097593
      3          1           0        1.403262   -1.780306   -1.391411
      4          8           0        2.425672    0.985764    0.520789
      5          1           0        3.170443    0.892180   -0.077058
      6          8           0        0.315233    1.349956   -0.367754
      7          1           0        1.767206    1.672795    0.143542
      8          8           0        0.669147   -0.836100    1.428068
      9          1           0        1.298422   -0.599520    2.104336
     10          6           0       -1.962106   -1.066269    0.209715
     11          1           0       -1.671529   -1.663414    1.068050
     12          1           0       -2.729634   -1.583044   -0.366254
     13          6           0       -2.410505    0.340832    0.595605
     14          1           0       -1.778703    0.718724    1.403042
     15          1           0       -3.439003    0.294162    0.958788
     16          8           0       -0.798613   -0.979725   -0.650437
     17          1           0       -1.064287   -0.351263   -1.340574
     18          8           0       -2.353194    1.186358   -0.522939
     19          1           0       -1.430288    1.526041   -0.543211
 ---------------------------------------------------------------------
                    Distance matrix (angstroms):
                    1          2          3          4          5
     1  Si   0.000000
     2  O    1.645616   0.000000
     3  H    2.239765   0.953466   0.000000
     4  O    1.962646   2.607686   3.514679   0.000000
     5  H    2.496467   2.528973   3.463038   0.959616   0.000000
     6  O    1.582145   2.820555   3.468461   2.318642   2.906250
     7  H    1.981245   2.903356   3.796372   1.023672   1.620833
     8  O    1.644050   2.758675   3.062664   2.688442   3.392468
     9  H    2.227052   3.255994   3.691273   2.508274   3.238536
    10  C    3.010097   3.958687   3.794622   4.853885   5.500984
    11  H    3.186557   4.130283   3.939156   4.909653   5.593481
    12  H    3.917677   4.604840   4.262709   5.827761   6.404786
    13  C    3.370849   4.694422   4.795026   4.879564   5.648313
    14  H    3.118633   4.653697   4.917216   4.304236   5.168639
    15  H    4.440931   5.739654   5.768395   5.921535   6.716799
    16  O    1.997919   2.610091   2.457281   3.953598   4.425630
    17  H    2.360273   2.910072   2.851937   4.175180   4.590813
    18  O    3.507244   4.682488   4.864802   4.895628   5.549407
    19  H    2.862771   4.087408   4.436257   4.036387   4.667526
                    6          7          8          9         10
     6  O    0.000000
     7  H    1.572856   0.000000
     8  O    2.851153   3.024946   0.000000
     9  H    3.298234   3.037744   0.953570   0.000000
    10  C    3.370146   4.627594   2.908755   3.799801   0.000000
    11  H    3.884476   4.879540   2.508551   3.320597   1.085245
    12  H    4.227730   5.575119   3.915256   4.826631   1.089906
    13  C    3.062031   4.408146   3.400356   4.112987   1.526403
    14  H    2.814025   3.882018   2.900012   3.420274   2.154962
    15  H    4.119309   5.447006   4.286562   4.955214   2.143153
    16  O    2.597687   3.774877   2.548555   3.482942   1.449506
    17  H    2.396581   3.783751   3.302308   4.184666   1.928914
    18  O    2.677937   4.202204   4.126901   4.840065   2.400845
    19  H    1.763131   3.273704   3.724684   4.355843   2.751326
                   11         12         13         14         15
    11  H    0.000000
    12  H    1.784173   0.000000
    13  C    2.187760   2.174469   0.000000
    14  H    2.407963   3.054965   1.092671   0.000000
    15  H    2.639698   2.404754   1.091737   1.770371   0.000000
    16  O    2.045143   2.042937   2.427897   2.839380   3.344256
    17  H    2.809262   2.289096   2.457658   3.030295   3.367924
    18  O    3.334234   2.799258   1.403331   2.063522   2.042182
    19  H    3.581477   3.374318   1.913752   2.135662   2.794363
                   16         17         18         19
    16  O    0.000000
    17  H    0.970483   0.000000
    18  O    2.669250   2.166584   0.000000
    19  H    2.586382   2.072200   0.983642   0.000000
 Symmetry turned off by external request.
 Stoichiometry    C2H10O6Si
 Framework group  C1[X(C2H10O6Si)]
 Deg. of freedom    51
[...]
     18          8           0       -2.353595    1.162632   -0.533860
     19          1           0       -1.423581    1.489817   -0.558858
 ---------------------------------------------------------------------
                    Distance matrix (angstroms):
                    1          2          3          4          5
     1  Si   0.000000
     2  O    1.643593   0.000000
     3  H    2.236290   0.952744   0.000000
     4  O    2.218275   2.685975   3.472446   0.000000
     5  H    2.655616   2.520224   3.306836   0.959164   0.000000
     6  O    1.552199   2.777693   3.544629   2.549414   3.072724
     7  H    2.285354   3.003238   3.891305   0.972770   1.552331
     8  O    1.641769   2.735908   2.918075   2.764266   3.395171
     9  H    2.217003   3.212786   3.485011   2.457714   3.164737
    10  C    2.967814   3.980220   3.944694   5.064854   5.615895
    11  H    3.164135   4.162925   4.012956   5.086762   5.678371
    12  H    3.872886   4.634519   4.467162   6.043693   6.520767
    13  C    3.308152   4.680414   4.921131   5.088488   5.779946
    14  H    3.076831   4.640530   4.980323   4.498205   5.300132
    15  H    4.382539   5.731740   5.904636   6.126378   6.848229
    16  O    1.957978   2.627184   2.638266   4.176252   4.543705
    17  H    2.334282   2.911818   3.079678   4.451473   4.763390
    18  O    3.414847   4.634773   5.026929   5.105514   5.688271
    19  H    2.761008   4.015972   4.557590   4.238028   4.804486
                    6          7          8          9         10
     6  O    0.000000
     7  H    1.974215   0.000000
     8  O    2.839505   3.153299   0.000000
     9  H    3.234881   2.992006   0.954229   0.000000
    10  C    3.400649   4.991260   2.928818   3.815917   0.000000
    11  H    3.912472   5.187421   2.540859   3.361500   1.085338
    12  H    4.258687   5.953000   3.935311   4.846952   1.089431
    13  C    3.072875   4.774715   3.409360   4.103709   1.527158
    14  H    2.831774   4.210752   2.910779   3.408448   2.155352
    15  H    4.127018   5.805692   4.308103   4.964610   2.141980
    16  O    2.639710   4.143635   2.551353   3.478709   1.453682
    17  H    2.484188   4.229632   3.322761   4.192871   1.935514
    18  O    2.665494   4.583940   4.107744   4.790723   2.401031
    19  H    1.738361   3.649264   3.686972   4.280745   2.750546
                   11         12         13         14         15
    11  H    0.000000
    12  H    1.784321   0.000000
    13  C    2.190332   2.177726   0.000000
    14  H    2.405313   3.055663   1.092966   0.000000
    15  H    2.646626   2.403575   1.091890   1.769656   0.000000
    16  O    2.046090   2.042617   2.431981   2.851028   3.345674
    17  H    2.814272   2.270955   2.489009   3.081992   3.384723
    18  O    3.332765   2.808125   1.401179   2.063041   2.041616
    19  H    3.575402   3.381233   1.915839   2.141470   2.799034
                   16         17         18         19
    16  O    0.000000
    17  H    0.970454   0.000000
    18  O    2.666202   2.198077   0.000000
    19  H    2.581068   2.119490   0.986206   0.000000
 Symmetry turned off by external request.
 Stoichiometry    C2H10O6Si
 Framework group  C1[X(C2H10O6Si)]
 Deg. of freedom    51
 Full point group                 C1      NOp   1
 Rotational constants (GHZ):           2.2420040           0.9361120           0.8559201
 Standard basis: def2TZVPP (5D, 7F)
   430 basis functions,   647 primitive gaussians,   486 cartesian basis functions
    42 alpha electrons       42 beta electrons
       nuclear repulsion energy       664.6568513047 Hartrees.
 NAtoms=   19 NActive=   19 NUniq=   19 SFac= 1.00D+00 NAtFMM=   60 NAOKFM=F Big=F
 Integral buffers will be    131072 words long.
 Raffenetti 2 integral format.
 Two-electron integral symmetry is turned off.
 Nuclear repulsion after empirical dispersion term =      664.6465474849 Hartrees.
 One-electron integrals computed using PRISM.
   1 Symmetry operations used in ECPInt.
 ECPInt:  NShTT=   13203 NPrTT=   36019 LenC2=   12637 LenP2D=   27146.
 LDataN:  DoStor=T MaxTD1= 6 Len=  172
 NBasis=   430 RedAO= T EigKep=  2.08D-04  NBF=   430
 NBsUse=   430 1.00D-06 EigRej= -1.00D+00 NBFU=   430
 Initial guess from the checkpoint file:  "IRC_of_TSOpt_FromFrozenBoth21_Reverse.chk"
 B after Tr=     0.000111   -0.000035    0.000119
         Rot=    1.000000    0.000036    0.000020    0.000005 Ang=   0.00 deg.
 ExpMin= 7.01D-02 ExpMax= 4.48D+04 ExpMxC= 1.53D+03 IAcc=3 IRadAn=         5 AccDes= 0.00D+00
 Harris functional with IExCor= 4639 and IRadAn=       5 diagonalized for initial guess.
 HarFok:  IExCor= 4639 AccDes= 0.00D+00 IRadAn=         5 IDoV= 1 UseB2=F ITyADJ=14
 ICtDFT=  3500011 ScaDFX=  1.000000  1.000000  1.000000  1.000000
 FoFCou: FMM=F IPFlag=           0 FMFlag=      100000 FMFlg1=           0
         NFxFlg=           0 DoJE=T BraDBF=F KetDBF=T FulRan=T
         wScrn=  0.000000 ICntrl=       500 IOpCl=  0 I1Cent=   200000004 NGrid=           0
         NMat0=    1 NMatS0=      1 NMatT0=    0 NMatD0=    1 NMtDS0=    0 NMtDT0=    0
 Symmetry not used in FoFCou.
 Requested convergence on RMS density matrix=1.00D-08 within 128 cycles.
 Requested convergence on MAX density matrix=1.00D-06.
 Requested convergence on             energy=1.00D-06.
 No special actions if energy rises.
 Integral accuracy reduced to 1.0D-05 until final iterations.
 Initial convergence to 1.0D-05 achieved.  Increase integral accuracy.
 SCF Done:  E(RwB97XD) =  -823.310423748     A.U. after    9 cycles
            NFock=  9  Conv=0.52D-08     -V/T= 2.0034
 DoSCS=F DFT=T ScalE2(SS,OS)=  1.000000  1.000000
 Range of M.O.s used for correlation:     1   430
 NBasis=   430 NAE=    42 NBE=    42 NFC=     0 NFV=     0
 NROrb=    430 NOA=    42 NOB=    42 NVA=   388 NVB=   388

 **** Warning!!: The largest alpha MO coefficient is  0.12124912D+02

 Symmetrizing basis deriv contribution to polar:
 IMax=3 JMax=2 DiffMx= 0.00D+00
   1 Symmetry operations used in ECPInt.
 ECPInt:  NShTT=   13203 NPrTT=   36019 LenC2=   12637 LenP2D=   27146.
 LDataN:  DoStor=T MaxTD1= 7 Len=  274
 Calling FoFJK, ICntrl=      2127 FMM=F ISym2X=0 I1Cent= 0 IOpClX= 0 NMat=1 NMatS=1 NMatT=0.
 -------------------------------------------------------------------
 Center     Atomic                   Forces (Hartrees/Bohr)
 Number     Number              X              Y              Z
 -------------------------------------------------------------------
      1       14          -0.000972635   -0.000552774   -0.000640740
      2        8          -0.000499974    0.001734116   -0.000552349
      3        1           0.000139806   -0.001474887    0.000151028
      4        8           0.001486399    0.000243022    0.001242365
      5        1          -0.000004832    0.000065146    0.000026518
      6        8           0.000332460    0.000012124   -0.000133790
      7        1          -0.000214266    0.000296426   -0.000109115
      8        8           0.000284167   -0.000051355   -0.000221890
      9        1          -0.000004336   -0.000010906   -0.000020039
     10        6          -0.000160312    0.000032346    0.000261189
     11        1           0.000001541    0.000011682    0.000016933
     12        1          -0.000008438    0.000001336    0.000002735
     13        6          -0.000128939    0.000110215   -0.000040473
     14        1           0.000002058    0.000017667    0.000001304
     15        1           0.000005533    0.000013133   -0.000003052
     16        8          -0.000207507   -0.000280199    0.000315310
     17        1           0.000017807   -0.000016320   -0.000005783
     18        8          -0.000060835   -0.000158418   -0.000282263
     19        1          -0.000007699    0.000007646   -0.000007885
 -------------------------------------------------------------------
 Cartesian Forces:  Max     0.001734116 RMS     0.000461176
 IRC-IRC-IRC-IRC-IRC-IRC-IRC-IRC-IRC-IRC-IRC-IRC-IRC-IRC-IRC-IRC-IRC-IRC
 Error in corrector energy =          -0.0000054325
 Magnitude of corrector gradient =     0.0026227540
 Magnitude of analytic gradient =      0.0034818057
 Magnitude of difference =             0.0021853176
 Angle between gradients (degrees)=   38.8376
 Pt 26 Step number  99 out of a maximum of 100
 Modified Bulirsch-Stoer Extrapolation Cycles:
    EPS =    0.000010000000000
      PEZero:  N= 2 I= 1 D=  5.72D-04 Err=  1.05D-04
      PEZero:  N= 3 I= 2 D=  5.72D-04 Err=  6.05D-05
      PEZero:  N= 3 I= 1 D=  1.14D-03 Err=  1.63D-05
      PEZero:  N= 4 I= 3 D=  2.86D-04 Err=  4.53D-05
      PEZero:  N= 4 I= 2 D=  8.58D-04 Err=  3.51D-07
      PEZero:  N= 4 I= 1 D=  1.43D-03 Err=  9.62D-06
 Maximum DWI energy   std dev =  0.000002191 at pt    23
 Maximum DWI gradient std dev =  0.454772570 at pt    74
 CORRECTOR INTEGRATION CONVERGENCE:
   Recorrection delta-x convergence threshold:    0.010000
   Delta-x Convergence NOT Met
 IRC-IRC-IRC-IRC-IRC-IRC-IRC-IRC-IRC-IRC-IRC-IRC-IRC-IRC-IRC-IRC-IRC-IRC
                          Input orientation:                          
 ---------------------------------------------------------------------
 Center     Atomic      Atomic             Coordinates (Angstroms)
 Number     Number       Type             X           Y           Z
 ---------------------------------------------------------------------
      1         14           0        0.790920   -0.081514   -0.057610
      2          8           0        1.756912   -0.899426   -1.105794
      3          1           0        1.631899   -1.845652   -1.149561
      4          8           0        2.619597    0.983950    0.603425
      5          1           0        3.299588    0.786034   -0.043379
      6          8           0        0.301014    1.354058   -0.387767
      7          1           0        2.119435    1.747382    0.263895
      8          8           0        0.679604   -0.812717    1.408087
      9          1           0        1.314710   -0.512308    2.053716
     10          6           0       -1.987634   -1.084165    0.229303
     11          1           0       -1.691835   -1.668985    1.094431
     12          1           0       -2.757121   -1.608898   -0.335897
     13          6           0       -2.426129    0.332782    0.592878
     14          1           0       -1.797987    0.714343    1.401881
     15          1           0       -3.457364    0.297412    0.949876
     16          8           0       -0.825559   -1.019453   -0.641541
     17          1           0       -1.105348   -0.441244   -1.369034
     18          8           0       -2.353528    1.162761   -0.533740
     19          1           0       -1.423658    1.490301   -0.558507
 ---------------------------------------------------------------------
                    Distance matrix (angstroms):
                    1          2          3          4          5
     1  Si   0.000000
     2  O    1.643415   0.000000
     3  H    2.238702   0.955451   0.000000
     4  O    2.217259   2.685658   3.472053   0.000000
     5  H    2.654478   2.519791   3.306145   0.959122   0.000000
     6  O    1.552378   2.777300   3.548201   2.548581   3.071270
     7  H    2.283238   3.002176   3.891714   0.973792   1.552858
     8  O    1.641742   2.736368   2.918113   2.763886   3.395154
     9  H    2.217574   3.213706   3.484163   2.458630   3.165950
    10  C    2.967826   3.979729   3.947423   5.063955   5.614866
    11  H    3.164070   4.162580   4.014215   5.086020   5.677679
    12  H    3.872846   4.633852   4.470078   6.042704   6.519584
    13  C    3.308199   4.679921   4.924354   5.087581   5.778762
    14  H    3.076677   4.640042   4.982725   4.497250   5.298979
    15  H    4.382525   5.731219   5.907703   6.125423   6.847021
    16  O    1.957986   2.626613   2.641929   4.175243   4.542512
    17  H    2.333468   2.910629   3.084324   4.449380   4.760990
    18  O    3.415036   4.634175   5.031244   5.104614   5.686835
    19  H    2.761495   4.015763   4.562275   4.237261   4.803166
                    6          7          8          9         10
     6  O    0.000000
     7  H    1.971299   0.000000
     8  O    2.839601   3.152204   0.000000
     9  H    3.236007   2.992865   0.954170   0.000000
    10  C    3.400531   4.988674   2.928716   3.815885   0.000000
    11  H    3.912434   5.185280   2.540728   3.361167   1.085338
    12  H    4.258401   5.950223   3.935284   4.846912   1.089452
    13  C    3.072780   4.771946   3.409151   4.103913   1.527155
    14  H    2.831585   4.208132   2.910396   3.408583   2.155350
    15  H    4.126886   5.802901   4.307765   4.964554   2.141981
    16  O    2.639530   4.141035   2.551319   3.478844   1.453608
    17  H    2.482709   4.225608   3.322115   4.192487   1.935577
    18  O    2.665425   4.580982   4.107687   4.791321   2.400998
    19  H    1.738450   3.646360   3.687153   4.281683   2.750743
                   11         12         13         14         15
    11  H    0.000000
    12  H    1.784456   0.000000
    13  C    2.190391   2.177681   0.000000
    14  H    2.405420   3.055692   1.092995   0.000000
    15  H    2.646640   2.403657   1.091853   1.769653   0.000000
    16  O    2.045954   2.042497   2.431903   2.850831   3.345615
    17  H    2.814245   2.271374   2.488509   3.081087   3.384514
    18  O    3.332802   2.807868   1.401216   2.063089   2.041667
    19  H    3.575641   3.381229   1.915851   2.141344   2.798958
                   16         17         18         19
    16  O    0.000000
    17  H    0.970491   0.000000
    18  O    2.666152   2.197385   0.000000
    19  H    2.581372   2.118759   0.986181   0.000000
 Symmetry turned off by external request.
 Stoichiometry    C2H10O6Si
 Framework group  C1[X(C2H10O6Si)]
 Deg. of freedom    51
 Full point group                 C1      NOp   1
 Rotational constants (GHZ):           2.2419231           0.9363105           0.8561097
 Standard basis: def2TZVPP (5D, 7F)
   430 basis functions,   647 primitive gaussians,   486 cartesian basis functions
    42 alpha electrons       42 beta electrons
       nuclear repulsion energy       664.6780202372 Hartrees.
 NAtoms=   19 NActive=   19 NUniq=   19 SFac= 1.00D+00 NAtFMM=   60 NAOKFM=F Big=F
 Integral buffers will be    131072 words long.
 Raffenetti 2 integral format.
 Two-electron integral symmetry is turned off.
 Nuclear repulsion after empirical dispersion term =      664.6677174136 Hartrees.
 One-electron integrals computed using PRISM.
   1 Symmetry operations used in ECPInt.
 ECPInt:  NShTT=   13203 NPrTT=   36019 LenC2=   12639 LenP2D=   27147.
 LDataN:  DoStor=T MaxTD1= 6 Len=  172
 NBasis=   430 RedAO= T EigKep=  2.08D-04  NBF=   430
 NBsUse=   430 1.00D-06 EigRej= -1.00D+00 NBFU=   430
 Initial guess from the checkpoint file:  "IRC_of_TSOpt_FromFrozenBoth21_Reverse.chk"
 B after Tr=    -0.000111    0.000035   -0.000119
         Rot=    1.000000   -0.000036   -0.000020   -0.000005 Ang=  -0.00 deg.
 ExpMin= 7.01D-02 ExpMax= 4.48D+04 ExpMxC= 1.53D+03 IAcc=3 IRadAn=         5 AccDes= 0.00D+00
 Harris functional with IExCor= 4639 and IRadAn=       5 diagonalized for initial guess.
 HarFok:  IExCor= 4639 AccDes= 0.00D+00 IRadAn=         5 IDoV= 1 UseB2=F ITyADJ=14
 ICtDFT=  3500011 ScaDFX=  1.000000  1.000000  1.000000  1.000000
 FoFCou: FMM=F IPFlag=           0 FMFlag=      100000 FMFlg1=           0
         NFxFlg=           0 DoJE=T BraDBF=F KetDBF=T FulRan=T
         wScrn=  0.000000 ICntrl=       500 IOpCl=  0 I1Cent=   200000004 NGrid=           0
         NMat0=    1 NMatS0=      1 NMatT0=    0 NMatD0=    1 NMtDS0=    0 NMtDT0=    0
 Symmetry not used in FoFCou.
 Requested convergence on RMS density matrix=1.00D-08 within 128 cycles.
 Requested convergence on MAX density matrix=1.00D-06.
 Requested convergence on             energy=1.00D-06.
 No special actions if energy rises.
 Integral accuracy reduced to 1.0D-05 until final iterations.
 Initial convergence to 1.0D-05 achieved.  Increase integral accuracy.
 SCF Done:  E(RwB97XD) =  -823.310424597     A.U. after    9 cycles
            NFock=  9  Conv=0.46D-08     -V/T= 2.0034
 DoSCS=F DFT=T ScalE2(SS,OS)=  1.000000  1.000000
 Range of M.O.s used for correlation:     1   430
 NBasis=   430 NAE=    42 NBE=    42 NFC=     0 NFV=     0
 NROrb=    430 NOA=    42 NOB=    42 NVA=   388 NVB=   388

 **** Warning!!: The largest alpha MO coefficient is  0.12075787D+02

 Symmetrizing basis deriv contribution to polar:
 IMax=3 JMax=2 DiffMx= 0.00D+00
   1 Symmetry operations used in ECPInt.
 ECPInt:  NShTT=   13203 NPrTT=   36019 LenC2=   12639 LenP2D=   27147.
 LDataN:  DoStor=T MaxTD1= 7 Len=  274
 Calling FoFJK, ICntrl=      2127 FMM=F ISym2X=0 I1Cent= 0 IOpClX= 0 NMat=1 NMatS=1 NMatT=0.
 -------------------------------------------------------------------
 Center     Atomic                   Forces (Hartrees/Bohr)
 Number     Number              X              Y              Z
 -------------------------------------------------------------------
      1       14          -0.001061118   -0.000545006   -0.000607927
      2        8          -0.000702158   -0.001157484   -0.000799722
      3        1           0.000432496    0.001429920    0.000347782
      4        8           0.001060612    0.000934558    0.001006232
      5        1           0.000044976    0.000038957   -0.000003760
      6        8           0.000386170   -0.000043238   -0.000114321
      7        1           0.000165980   -0.000323252    0.000178290
      8        8           0.000248279   -0.000123404   -0.000244847
      9        1           0.000034324    0.000034444   -0.000023538
     10        6          -0.000169381    0.000039559    0.000215818
     11        1          -0.000020051    0.000010723    0.000022397
     12        1          -0.000009472   -0.000002898    0.000030368
     13        6          -0.000094006    0.000110935   -0.000031017
     14        1          -0.000012057    0.000015143   -0.000012667
     15        1          -0.000016594    0.000017310   -0.000001050
     16        8          -0.000187844   -0.000218242    0.000326767
     17        1          -0.000024126   -0.000058868   -0.000012973
     18        8          -0.000069546   -0.000156482   -0.000258565
     19        1          -0.000006485   -0.000002675   -0.000017268
 -------------------------------------------------------------------
 Cartesian Forces:  Max     0.001429920 RMS     0.000429036
 IRC-IRC-IRC-IRC-IRC-IRC-IRC-IRC-IRC-IRC-IRC-IRC-IRC-IRC-IRC-IRC-IRC-IRC
 Error in corrector energy =          -0.0000055585
 Magnitude of corrector gradient =     0.0027015350
 Magnitude of analytic gradient =      0.0032391530
 Magnitude of difference =             0.0022884234
 Angle between gradients (degrees)=   44.1690
 Pt 26 Step number 100 out of a maximum of 100
 Modified Bulirsch-Stoer Extrapolation Cycles:
    EPS =    0.000010000000000
      PEZero:  N= 2 I= 1 D=  5.72D-04 Err=  2.28D-05
      PEZero:  N= 3 I= 2 D=  5.72D-04 Err=  1.48D-05
      PEZero:  N= 3 I= 1 D=  1.14D-03 Err=  3.54D-06
 Maximum DWI energy   std dev =  0.000000684 at pt    62
 Maximum DWI gradient std dev =  0.370130789 at pt    28
 CORRECTOR INTEGRATION CONVERGENCE:
   Recorrection delta-x convergence threshold:    0.010000
   Delta-x Convergence NOT Met
 Maximum number of corrector steps exceded.
 Error termination via Lnk1e in /opt/software/gaussian/g16.c01/l123.exe at Tue Jan 30 08:22:29 2024.
 Job cpu time:       2 days 14 hours 45 minutes 50.5 seconds.
 Elapsed time:       0 days 15 hours 45 minutes 12.0 seconds.
 File lengths (MBytes):  RWF=    121 Int=      0 D2E=      0 Chk=     17 Scr=      1
