 Entering Gaussian System, Link 0=/opt/software/gaussian/g16.c01/g16
 Initial command:
 /opt/software/gaussian/g16.c01/l1.exe "/scratch/arhender/25262372/Gau-9310.inp" -scrdir="/scratch/arhender/25262372/"
 Entering Link 1 = /opt/software/gaussian/g16.c01/l1.exe PID=      9613.
  
 Copyright (c) 1988-2019, Gaussian, Inc.  All Rights Reserved.
  
 This is part of the Gaussian(R) 16 program.  It is based on
 the Gaussian(R) 09 system (copyright 2009, Gaussian, Inc.),
 the Gaussian(R) 03 system (copyright 2003, Gaussian, Inc.),
 the Gaussian(R) 98 system (copyright 1998, Gaussian, Inc.),
 the Gaussian(R) 94 system (copyright 1995, Gaussian, Inc.),
 the Gaussian 92(TM) system (copyright 1992, Gaussian, Inc.),
 the Gaussian 90(TM) system (copyright 1990, Gaussian, Inc.),
 the Gaussian 88(TM) system (copyright 1988, Gaussian, Inc.),
 the Gaussian 86(TM) system (copyright 1986, Carnegie Mellon
 University), and the Gaussian 82(TM) system (copyright 1983,
 Carnegie Mellon University). Gaussian is a federally registered
 trademark of Gaussian, Inc.
  
 This software contains proprietary and confidential information,
 including trade secrets, belonging to Gaussian, Inc.
  
 This software is provided under written license and may be
 used, copied, transmitted, or stored only in accord with that
 written license.
  
 The following legend is applicable only to US Government
 contracts under FAR:
  
                    RESTRICTED RIGHTS LEGEND
  
 Use, reproduction and disclosure by the US Government is
 subject to restrictions as set forth in subparagraphs (a)
 and (c) of the Commercial Computer Software - Restricted
 Rights clause in FAR 52.227-19.
  
 Gaussian, Inc.
 340 Quinnipiac St., Bldg. 40, Wallingford CT 06492
  
  
 ---------------------------------------------------------------
 Warning -- This program may not be used in any manner that
 competes with the business of Gaussian, Inc. or will provide
 assistance to any competitor of Gaussian, Inc.  The licensee
 of this program is prohibited from giving any competitor of
 Gaussian, Inc. access to this program.  By using this program,
 the user acknowledges that Gaussian, Inc. is engaged in the
 business of creating and licensing software in the field of
 computational chemistry and represents and warrants to the
 licensee that it is not a competitor of Gaussian, Inc. and that
 it will not use this program in any manner prohibited above.
 ---------------------------------------------------------------
  

 Cite this work as:
 Gaussian 16, Revision C.01,
 M. J. Frisch, G. W. Trucks, H. B. Schlegel, G. E. Scuseria, 
 M. A. Robb, J. R. Cheeseman, G. Scalmani, V. Barone, 
 G. A. Petersson, H. Nakatsuji, X. Li, M. Caricato, A. V. Marenich, 
 J. Bloino, B. G. Janesko, R. Gomperts, B. Mennucci, H. P. Hratchian, 
 J. V. Ortiz, A. F. Izmaylov, J. L. Sonnenberg, D. Williams-Young, 
 F. Ding, F. Lipparini, F. Egidi, J. Goings, B. Peng, A. Petrone, 
 T. Henderson, D. Ranasinghe, V. G. Zakrzewski, J. Gao, N. Rega, 
 G. Zheng, W. Liang, M. Hada, M. Ehara, K. Toyota, R. Fukuda, 
 J. Hasegawa, M. Ishida, T. Nakajima, Y. Honda, O. Kitao, H. Nakai, 
 T. Vreven, K. Throssell, J. A. Montgomery, Jr., J. E. Peralta, 
 F. Ogliaro, M. J. Bearpark, J. J. Heyd, E. N. Brothers, K. N. Kudin, 
 V. N. Staroverov, T. A. Keith, R. Kobayashi, J. Normand, 
 K. Raghavachari, A. P. Rendell, J. C. Burant, S. S. Iyengar, 
 J. Tomasi, M. Cossi, J. M. Millam, M. Klene, C. Adamo, R. Cammi, 
 J. W. Ochterski, R. L. Martin, K. Morokuma, O. Farkas, 
 J. B. Foresman, and D. J. Fox, Gaussian, Inc., Wallingford CT, 2019.
 
 ******************************************
 Gaussian 16:  ES64L-G16RevC.01  3-Jul-2019
                15-Feb-2024 
 ******************************************
 %chk=QL_MonoToBi_DeprotonatedLigandAttacking_IRC_reverse.chk
 %mem=1600MB
 %nprocs=4
 Will use up to    4 processors via shared memory.
 ----------------------------------------------------------------------
 # irc=(reverse,calcfc,maxpoints=100,maxcycle=100) wb97xd/def2tzvpp geo
 m=connectivity
 ----------------------------------------------------------------------
 1/6=100,10=4,18=10,22=2,26=3,38=1,42=100,44=3,57=2,172=1/1,23;
 2/12=2,17=6,18=5,29=1,40=1/2;
 3/5=44,7=202,11=2,25=1,30=1,71=2,74=-58,140=1/1,2,3;
 4//1;
 5/5=2,38=5/2;
 8/6=4,10=90,11=11/1;
 11/6=1,8=1,9=11,15=111,16=1/1,2,10;
 10/6=1,13=1/2;
 6/7=2,8=2,9=2,10=2,28=1/1;
 7/10=1,25=1/1,2,3,16;
 1/6=100,10=4,18=10,22=2,26=3,42=100,44=3/23(2);
 2/29=1/2;
 99/5=20/99;
 2/29=1/2;
 3/5=44,7=202,11=2,25=1,30=1,71=2,74=-58,140=1/1,2,3;
 4/5=5,16=3,69=1/1;
 5/5=2,38=5/2;
 8/6=4,10=90,11=11/1;
 11/6=1,8=1,9=11,15=111,16=1/1,2,10;
 10/6=1,13=1/2;
 7/10=1,25=1/1,2,3,16;
 1/6=100,18=10,22=2,26=3,42=100,44=3/23(-8);
 2/29=1/2;
 6/7=2,8=2,9=2,10=2,19=2,28=1/1;
 99/5=20,9=1/99;
 ---------------
 title card here
 ---------------
 Symbolic Z-matrix:
 Charge = -1 Multiplicity = 1
 Si                    0.79793   0.02471  -0.01372 
 O                     1.06152   0.01664   1.62271 
 H                     1.98268  -0.15746   1.80147 
 O                     0.62263   1.46718  -0.73998 
 H                    -0.33698   1.63972  -0.4191 
 O                     2.26306  -0.54252  -0.60177 
 H                     2.51628  -0.04552  -1.37572 
 O                    -0.25748  -1.16554  -0.42595 
 C                    -1.60589  -1.1928   -0.00987 
 H                    -1.65122  -1.45874   1.0544 
 H                    -2.11647  -1.97355  -0.58783 
 C                    -2.25985   0.17624  -0.20306 
 H                    -2.36821   0.32955  -1.303 
 H                    -3.30141   0.09092   0.18517 
 O                    -1.52739   1.1403    0.40928 
 
 IRC-IRC-IRC-IRC-IRC-IRC-IRC-IRC-IRC-IRC-IRC-IRC-IRC-IRC-IRC-IRC-IRC-IRC
 ------------------------------------------------------------------------
 INPUT DATA FOR L123
 ------------------------------------------------------------------------
 GENERAL PARAMETERS:
 Rxn path following direction = Reverse
 Maximum points per path      = 100
 Step size                    =   0.100 bohr
 Integration scheme           = HPC                                 
    Redo corrector integration= Yes                                 
    DWI Weight Power          =  2
    DWI will use Hessian update vectors when possible.
    Max correction cycles     = 100
 Initial Hessian              = CalcFC
 Hessian evaluation           = All updating
 Hessian updating method      = Bofill                              
 ------------------------------------------------------------------------
 IRC-IRC-IRC-IRC-IRC-IRC-IRC-IRC-IRC-IRC-IRC-IRC-IRC-IRC-IRC-IRC-IRC-IRC
                          Input orientation:                          
 ---------------------------------------------------------------------
 Center     Atomic      Atomic             Coordinates (Angstroms)
 Number     Number       Type             X           Y           Z
 ---------------------------------------------------------------------
      1         14           0        0.797932    0.024705   -0.013723
      2          8           0        1.061520    0.016643    1.622705
      3          1           0        1.982678   -0.157455    1.801474
      4          8           0        0.622631    1.467179   -0.739984
      5          1           0       -0.336976    1.639724   -0.419095
      6          8           0        2.263057   -0.542517   -0.601766
      7          1           0        2.516279   -0.045521   -1.375718
      8          8           0       -0.257477   -1.165535   -0.425950
      9          6           0       -1.605892   -1.192796   -0.009870
     10          1           0       -1.651216   -1.458740    1.054400
     11          1           0       -2.116474   -1.973552   -0.587826
     12          6           0       -2.259852    0.176235   -0.203063
     13          1           0       -2.368206    0.329546   -1.303004
     14          1           0       -3.301406    0.090916    0.185172
     15          8           0       -1.527388    1.140300    0.409283
 ---------------------------------------------------------------------
                    Distance matrix (angstroms):
                    1          2          3          4          5
     1  Si   0.000000
     2  O    1.657540   0.000000
     3  H    2.175258   0.954359   0.000000
     4  O    1.624474   2.806952   3.308802   0.000000
     5  H    2.015100   2.959583   3.679888   1.026444   0.000000
     6  O    1.677536   2.589329   2.449989   2.597880   3.399370
     7  H    2.193782   3.333276   3.223633   2.505658   3.449093
     8  O    1.643317   2.708189   3.316012   2.793634   2.806394
     9  C    2.694567   3.353078   4.150992   3.546103   3.130620
    10  H    3.056112   3.139851   3.931494   4.117183   3.674084
    11  H    3.579998   4.352812   5.080355   4.400509   4.031234
    12  C    3.067386   3.793469   4.704102   3.203674   2.426092
    13  H    3.432143   4.518927   5.367043   3.249047   2.573666
    14  H    4.104694   4.594251   5.531335   4.260056   3.398792
    15  O    2.613542   3.072042   3.992860   2.459725   1.533856
                    6          7          8          9         10
     6  O    0.000000
     7  H    0.954006   0.000000
     8  O    2.602336   3.138505   0.000000
     9  C    3.967615   4.491556   1.411414   0.000000
    10  H    4.347860   5.026995   2.054243   1.097930   0.000000
    11  H    4.607423   5.079417   2.033461   1.097409   1.782808
    12  C    4.596985   4.922979   2.420647   1.529455   2.150533
    13  H    4.764538   4.899404   2.731239   2.137953   3.044568
    14  H    5.655418   6.024986   3.349275   2.135586   2.424895
    15  O    4.268673   4.576422   2.761732   2.371748   2.680768
                   11         12         13         14         15
    11  H    0.000000
    12  C    2.188649   0.000000
    13  H    2.424687   1.115847   0.000000
    14  H    2.502722   1.114828   1.772703   0.000000
    15  O    3.322247   1.356795   2.072733   2.073300   0.000000
 Symmetry turned off by external request.
 Stoichiometry    C2H7O5Si(1-)
 Framework group  C1[X(C2H7O5Si)]
 Deg. of freedom    39
 Full point group                 C1      NOp   1
 Rotational constants (GHZ):           2.8198978           1.4035184           1.2734587
 Standard basis: def2TZVPP (5D, 7F)
   357 basis functions,   545 primitive gaussians,   405 cartesian basis functions
    37 alpha electrons       37 beta electrons
       nuclear repulsion energy       530.9545652058 Hartrees.
 NAtoms=   15 NActive=   15 NUniq=   15 SFac= 1.00D+00 NAtFMM=   60 NAOKFM=F Big=F
 Integral buffers will be    131072 words long.
 Raffenetti 2 integral format.
 Two-electron integral symmetry is turned off.
 Nuclear repulsion after empirical dispersion term =      530.9478644948 Hartrees.
 One-electron integrals computed using PRISM.
   1 Symmetry operations used in ECPInt.
 ECPInt:  NShTT=    8911 NPrTT=   25186 LenC2=    8644 LenP2D=   19478.
 LDataN:  DoStor=T MaxTD1= 6 Len=  172
 NBasis=   357 RedAO= T EigKep=  3.37D-04  NBF=   357
 NBsUse=   357 1.00D-06 EigRej= -1.00D+00 NBFU=   357
 ExpMin= 7.01D-02 ExpMax= 4.48D+04 ExpMxC= 1.53D+03 IAcc=3 IRadAn=         5 AccDes= 0.00D+00
 Harris functional with IExCor= 4639 and IRadAn=       5 diagonalized for initial guess.
 HarFok:  IExCor= 4639 AccDes= 0.00D+00 IRadAn=         5 IDoV= 1 UseB2=F ITyADJ=14
 ICtDFT=  3500011 ScaDFX=  1.000000  1.000000  1.000000  1.000000
 FoFCou: FMM=F IPFlag=           0 FMFlag=      100000 FMFlg1=           0
         NFxFlg=           0 DoJE=T BraDBF=F KetDBF=T FulRan=T
         wScrn=  0.000000 ICntrl=       500 IOpCl=  0 I1Cent=   200000004 NGrid=           0
         NMat0=    1 NMatS0=      1 NMatT0=    0 NMatD0=    1 NMtDS0=    0 NMtDT0=    0
 Symmetry not used in FoFCou.
 Requested convergence on RMS density matrix=1.00D-08 within 128 cycles.
 Requested convergence on MAX density matrix=1.00D-06.
 Requested convergence on             energy=1.00D-06.
 No special actions if energy rises.
 Integral accuracy reduced to 1.0D-05 until final iterations.
 Initial convergence to 1.0D-05 achieved.  Increase integral accuracy.
 SCF Done:  E(RwB97XD) =  -746.334789576     A.U. after   15 cycles
            NFock= 15  Conv=0.58D-08     -V/T= 2.0033
 DoSCS=F DFT=T ScalE2(SS,OS)=  1.000000  1.000000
 Range of M.O.s used for correlation:     1   357
 NBasis=   357 NAE=    37 NBE=    37 NFC=     0 NFV=     0
 NROrb=    357 NOA=    37 NOB=    37 NVA=   320 NVB=   320

 **** Warning!!: The largest alpha MO coefficient is  0.11205593D+02

   1 Symmetry operations used in ECPInt.
 ECPInt:  NShTT=    8911 NPrTT=   25186 LenC2=    8644 LenP2D=   19478.
 LDataN:  DoStor=T MaxTD1= 7 Len=  274
 Symmetrizing basis deriv contribution to polar:
 IMax=3 JMax=2 DiffMx= 0.00D+00
 G2DrvN: will do    16 centers at a time, making    1 passes.
 Calling FoFCou, ICntrl=  3107 FMM=F I1Cent=   0 AccDes= 0.00D+00.
 End of G2Drv F.D. properties file   721 does not exist.
 End of G2Drv F.D. properties file   722 does not exist.
 End of G2Drv F.D. properties file   788 does not exist.
          IDoAtm=111111111111111
          Differentiating once with respect to nuclear coordinates.
 CalDSu exits because no D1Ps are significant.
          There are    48 degrees of freedom in the 1st order CPHF.  IDoFFX=6 NUNeed=     0.
     42 vectors produced by pass  0 Test12= 2.47D-14 2.08D-09 XBig12= 8.28D-02 5.46D-02.
 AX will form    42 AO Fock derivatives at one time.
     42 vectors produced by pass  1 Test12= 2.47D-14 2.08D-09 XBig12= 2.44D-02 2.66D-02.
     42 vectors produced by pass  2 Test12= 2.47D-14 2.08D-09 XBig12= 7.83D-04 4.14D-03.
     42 vectors produced by pass  3 Test12= 2.47D-14 2.08D-09 XBig12= 1.45D-05 6.57D-04.
     42 vectors produced by pass  4 Test12= 2.47D-14 2.08D-09 XBig12= 1.65D-07 4.94D-05.
     42 vectors produced by pass  5 Test12= 2.47D-14 2.08D-09 XBig12= 1.72D-09 4.06D-06.
     42 vectors produced by pass  6 Test12= 2.47D-14 2.08D-09 XBig12= 1.32D-11 3.13D-07.
     20 vectors produced by pass  7 Test12= 2.47D-14 2.08D-09 XBig12= 9.29D-14 3.34D-08.
      2 vectors produced by pass  8 Test12= 2.47D-14 2.08D-09 XBig12= 6.37D-16 2.45D-09.
 InvSVY:  IOpt=1 It=  1 EMax= 1.55D-15
 Solved reduced A of dimension   316 with    42 vectors.
 End of Minotr F.D. properties file   721 does not exist.
 End of Minotr F.D. properties file   722 does not exist.
 End of Minotr F.D. properties file   788 does not exist.

 **********************************************************************

            Population analysis using the SCF Density.

 **********************************************************************

 Alpha  occ. eigenvalues --  -66.13342 -19.08394 -19.08196 -19.07666 -19.04327
 Alpha  occ. eigenvalues --  -18.98101 -10.16334 -10.13975  -5.24923  -3.59558
 Alpha  occ. eigenvalues --   -3.59400  -3.59294  -0.96810  -0.93949  -0.92897
 Alpha  occ. eigenvalues --   -0.89926  -0.85029  -0.64195  -0.52256  -0.47359
 Alpha  occ. eigenvalues --   -0.44098  -0.40908  -0.39865  -0.38475  -0.37107
 Alpha  occ. eigenvalues --   -0.31841  -0.31058  -0.29572  -0.28491  -0.26824
 Alpha  occ. eigenvalues --   -0.26363  -0.24712  -0.23700  -0.22501  -0.20078
 Alpha  occ. eigenvalues --   -0.12312  -0.12073
 Alpha virt. eigenvalues --    0.24467   0.27193   0.27800   0.30145   0.31973
 Alpha virt. eigenvalues --    0.33199   0.34887   0.35313   0.37716   0.38399
 Alpha virt. eigenvalues --    0.39573   0.41887   0.43197   0.43903   0.44552
 Alpha virt. eigenvalues --    0.47762   0.48883   0.49418   0.51988   0.55398
 Alpha virt. eigenvalues --    0.56657   0.57230   0.59196   0.60171   0.60927
 Alpha virt. eigenvalues --    0.61520   0.63149   0.64106   0.64739   0.65400
 Alpha virt. eigenvalues --    0.65966   0.67202   0.68800   0.69912   0.70516
 Alpha virt. eigenvalues --    0.71893   0.73760   0.74428   0.75382   0.75968
 Alpha virt. eigenvalues --    0.76813   0.78760   0.81237   0.83193   0.84611
 Alpha virt. eigenvalues --    0.87782   0.89488   0.90772   0.91181   0.93367
 Alpha virt. eigenvalues --    0.95547   0.96849   0.97048   0.98752   1.02093
 Alpha virt. eigenvalues --    1.03648   1.03841   1.05084   1.07763   1.08938
 Alpha virt. eigenvalues --    1.09974   1.11338   1.12072   1.15014   1.17153
 Alpha virt. eigenvalues --    1.19887   1.22010   1.23111   1.24381   1.25778
 Alpha virt. eigenvalues --    1.27791   1.29792   1.31272   1.32801   1.34744
 Alpha virt. eigenvalues --    1.36123   1.36563   1.38196   1.39118   1.42108
 Alpha virt. eigenvalues --    1.44463   1.44636   1.46679   1.47260   1.49789
 Alpha virt. eigenvalues --    1.50403   1.54197   1.54905   1.59536   1.60662
 Alpha virt. eigenvalues --    1.61773   1.64284   1.65463   1.69136   1.70692
 Alpha virt. eigenvalues --    1.71989   1.73317   1.75077   1.77480   1.79591
 Alpha virt. eigenvalues --    1.80854   1.84769   1.88874   1.92673   1.96035
 Alpha virt. eigenvalues --    1.99843   2.00727   2.04504   2.05885   2.08133
 Alpha virt. eigenvalues --    2.10382   2.13493   2.15898   2.18060   2.19474
 Alpha virt. eigenvalues --    2.20209   2.21901   2.25799   2.26693   2.28735
 Alpha virt. eigenvalues --    2.31404   2.32677   2.35131   2.36312   2.39206
 Alpha virt. eigenvalues --    2.40209   2.42814   2.44302   2.46552   2.48529
 Alpha virt. eigenvalues --    2.52423   2.56968   2.59256   2.62522   2.65640
 Alpha virt. eigenvalues --    2.69664   2.74325   2.75726   2.78373   2.84180
 Alpha virt. eigenvalues --    2.86957   2.87966   2.90911   2.96418   3.00527
 Alpha virt. eigenvalues --    3.00959   3.03682   3.06939   3.08124   3.11308
 Alpha virt. eigenvalues --    3.14428   3.16343   3.16906   3.20593   3.21492
 Alpha virt. eigenvalues --    3.23814   3.24312   3.25567   3.30376   3.32847
 Alpha virt. eigenvalues --    3.33394   3.33595   3.36572   3.39339   3.40551
 Alpha virt. eigenvalues --    3.42723   3.45055   3.47776   3.49517   3.52254
 Alpha virt. eigenvalues --    3.53746   3.54912   3.55998   3.58358   3.60745
 Alpha virt. eigenvalues --    3.62199   3.64403   3.65027   3.71025   3.72168
 Alpha virt. eigenvalues --    3.74010   3.77225   3.81101   3.83215   3.85368
 Alpha virt. eigenvalues --    3.86525   3.88577   3.90605   3.91477   3.93551
 Alpha virt. eigenvalues --    3.95930   3.96390   3.98943   4.01191   4.04258
 Alpha virt. eigenvalues --    4.06092   4.07392   4.12268   4.16018   4.17485
 Alpha virt. eigenvalues --    4.18278   4.20633   4.25321   4.25976   4.26402
 Alpha virt. eigenvalues --    4.27917   4.29660   4.30127   4.31936   4.36795
 Alpha virt. eigenvalues --    4.37833   4.41011   4.43646   4.44968   4.48149
 Alpha virt. eigenvalues --    4.50009   4.51383   4.54531   4.56322   4.59110
 Alpha virt. eigenvalues --    4.62365   4.68487   4.71344   4.75605   4.84374
 Alpha virt. eigenvalues --    4.87705   4.89215   4.92210   4.95352   5.00718
 Alpha virt. eigenvalues --    5.02595   5.06193   5.10059   5.12079   5.13957
 Alpha virt. eigenvalues --    5.16043   5.17474   5.20668   5.24779   5.26400
 Alpha virt. eigenvalues --    5.30540   5.35119   5.40060   5.44322   5.45078
 Alpha virt. eigenvalues --    5.49785   5.51175   5.54361   5.57238   5.58961
 Alpha virt. eigenvalues --    5.59218   5.60626   5.63489   5.65797   5.67575
 Alpha virt. eigenvalues --    5.71817   5.72037   5.74695   5.75560   5.76788
 Alpha virt. eigenvalues --    5.81904   5.84170   5.87065   5.87763   5.96012
 Alpha virt. eigenvalues --    5.99169   6.00758   6.04697   6.11297   6.20475
 Alpha virt. eigenvalues --    6.29358   6.34128   6.40849   6.47856   6.49829
 Alpha virt. eigenvalues --    6.63391   6.68454   6.69154   6.75703   6.80915
 Alpha virt. eigenvalues --    6.82867   6.83747   6.84644   6.86074   6.87828
 Alpha virt. eigenvalues --    6.88757   6.90584   6.91924   6.93473   6.95410
 Alpha virt. eigenvalues --    6.96476   6.98699   7.02925   7.04868   7.07210
 Alpha virt. eigenvalues --    7.12973   7.22013   7.25332   7.26105   7.32056
 Alpha virt. eigenvalues --    7.36358   7.39840   7.44852   7.48856   7.51524
 Alpha virt. eigenvalues --    7.52954   7.57630   7.64347   7.74204   7.82028
 Alpha virt. eigenvalues --    7.92625   7.98940  12.48243  23.56712  23.71104
 Alpha virt. eigenvalues --   43.98754  44.04824  44.15695  44.31348  44.41297
          Condensed to atoms (all electrons):
               1          2          3          4          5          6
     1  Si  11.495602   0.434369  -0.026648   0.470667  -0.049846   0.443791
     2  O    0.434369   7.751599   0.312536  -0.023952   0.001207  -0.040494
     3  H   -0.026648   0.312536   0.564807  -0.000508  -0.000707   0.000671
     4  O    0.470667  -0.023952  -0.000508   7.977862   0.284566  -0.043779
     5  H   -0.049846   0.001207  -0.000707   0.284566   0.396760   0.001575
     6  O    0.443791  -0.040494   0.000671  -0.043779   0.001575   7.852993
     7  H   -0.026880   0.001941  -0.000347   0.002237  -0.000587   0.325286
     8  O    0.429554  -0.025031   0.000744  -0.023726  -0.000968  -0.032890
     9  C   -0.110503  -0.006271  -0.000518  -0.007178   0.022474  -0.000983
    10  H    0.003296   0.004582   0.000397   0.000075  -0.002403  -0.000079
    11  H    0.008240  -0.000248   0.000089  -0.000234  -0.001323  -0.000062
    12  C   -0.004392  -0.001081  -0.000001   0.015512  -0.013418  -0.000815
    13  H    0.022927  -0.000216   0.000057   0.006823  -0.023508  -0.000096
    14  H    0.000125   0.000191   0.000031  -0.001691   0.003880  -0.000008
    15  O    0.103483  -0.006987   0.001609  -0.109466   0.129283  -0.000223
               7          8          9         10         11         12
     1  Si  -0.026880   0.429554  -0.110503   0.003296   0.008240  -0.004392
     2  O    0.001941  -0.025031  -0.006271   0.004582  -0.000248  -0.001081
     3  H   -0.000347   0.000744  -0.000518   0.000397   0.000089  -0.000001
     4  O    0.002237  -0.023726  -0.007178   0.000075  -0.000234   0.015512
     5  H   -0.000587  -0.000968   0.022474  -0.002403  -0.001323  -0.013418
     6  O    0.325286  -0.032890  -0.000983  -0.000079  -0.000062  -0.000815
     7  H    0.533164  -0.000055  -0.000395  -0.000017   0.000034   0.000015
     8  O   -0.000055   7.921090   0.295722  -0.052402  -0.042036  -0.070438
     9  C   -0.000395   0.295722   5.094828   0.379055   0.317397   0.242907
    10  H   -0.000017  -0.052402   0.379055   0.718188  -0.052636  -0.044480
    11  H    0.000034  -0.042036   0.317397  -0.052636   0.742967  -0.009410
    12  C    0.000015  -0.070438   0.242907  -0.044480  -0.009410   4.670013
    13  H    0.000038   0.002776  -0.137986   0.021601   0.000008   0.416300
    14  H   -0.000002   0.007286  -0.040674  -0.014559   0.012685   0.310104
    15  O    0.000063  -0.007766  -0.155318   0.011381   0.011555   0.403283
              13         14         15
     1  Si   0.022927   0.000125   0.103483
     2  O   -0.000216   0.000191  -0.006987
     3  H    0.000057   0.000031   0.001609
     4  O    0.006823  -0.001691  -0.109466
     5  H   -0.023508   0.003880   0.129283
     6  O   -0.000096  -0.000008  -0.000223
     7  H    0.000038  -0.000002   0.000063
     8  O    0.002776   0.007286  -0.007766
     9  C   -0.137986  -0.040674  -0.155318
    10  H    0.021601  -0.014559   0.011381
    11  H    0.000008   0.012685   0.011555
    12  C    0.416300   0.310104   0.403283
    13  H    0.900235  -0.098475  -0.084081
    14  H   -0.098475   0.892323  -0.039274
    15  O   -0.084081  -0.039274   8.434849
 Mulliken charges:
               1
     1  Si   0.806215
     2  O   -0.402146
     3  H    0.147787
     4  O   -0.547208
     5  H    0.253014
     6  O   -0.504887
     7  H    0.165505
     8  O   -0.401859
     9  C    0.107443
    10  H    0.028000
    11  H    0.012973
    12  C    0.085901
    13  H   -0.026405
    14  H   -0.031944
    15  O   -0.692391
 Sum of Mulliken charges =  -1.00000
 Mulliken charges with hydrogens summed into heavy atoms:
               1
     1  Si   0.806215
     2  O   -0.254358
     4  O   -0.294194
     6  O   -0.339382
     8  O   -0.401859
     9  C    0.148417
    12  C    0.027552
    15  O   -0.692391
 APT charges:
               1
     1  Si   0.385861
     2  O   -0.750426
     3  H    0.589177
     4  O   -0.461358
     5  H    0.253823
     6  O   -0.678747
     7  H    0.524290
     8  O   -0.376594
     9  C   -0.463734
    10  H    0.266260
    11  H    0.392885
    12  C   -0.672428
    13  H    0.207226
    14  H    0.372714
    15  O   -0.588948
 Sum of APT charges =  -1.00000
 APT charges with hydrogens summed into heavy atoms:
               1
     1  Si   0.385861
     2  O   -0.161249
     4  O   -0.207536
     6  O   -0.154457
     8  O   -0.376594
     9  C    0.195411
    12  C   -0.092488
    15  O   -0.588948
 Electronic spatial extent (au):  <R**2>=           1070.6055
 Charge=             -1.0000 electrons
 Dipole moment (field-independent basis, Debye):
    X=              2.1897    Y=             -2.4261    Z=             -0.7839  Tot=              3.3609
 Quadrupole moment (field-independent basis, Debye-Ang):
   XX=            -65.1960   YY=            -67.6149   ZZ=            -59.6914
   XY=              5.3482   XZ=              2.4257   YZ=             -2.1901
 Traceless Quadrupole moment (field-independent basis, Debye-Ang):
   XX=             -1.0285   YY=             -3.4475   ZZ=              4.4760
   XY=              5.3482   XZ=              2.4257   YZ=             -2.1901
 Octapole moment (field-independent basis, Debye-Ang**2):
  XXX=             35.1681  YYY=             -3.8651  ZZZ=             -5.7214  XYY=              4.9467
  XXY=             -2.0587  XXZ=              1.3364  XZZ=             15.6818  YZZ=             -3.2081
  YYZ=              3.9282  XYZ=              1.7295
 Hexadecapole moment (field-independent basis, Debye-Ang**3):
 XXXX=           -882.8682 YYYY=           -351.6323 ZZZZ=           -236.5836 XXXY=             26.9550
 XXXZ=              1.9641 YYYX=             -3.0907 YYYZ=              1.2202 ZZZX=             -7.0735
 ZZZY=             -1.2908 XXYY=           -216.6524 XXZZ=           -151.3382 YYZZ=           -100.6220
 XXYZ=            -11.0156 YYXZ=             10.7138 ZZXY=             -1.7243
 N-N= 5.309478644948D+02 E-N=-2.843287143095D+03  KE= 7.438563926582D+02
  Exact polarizability:       0.000       0.000       0.000       0.000       0.000       0.000
 Approx polarizability:      77.783       2.759      69.306      -0.494      -0.280      69.853
   1 Symmetry operations used in ECPInt.
 ECPInt:  NShTT=    8911 NPrTT=   25186 LenC2=    8644 LenP2D=   19478.
 LDataN:  DoStor=T MaxTD1= 8 Len=  415
 Calling FoFJK, ICntrl=    100127 FMM=F ISym2X=0 I1Cent= 0 IOpClX= 0 NMat=1 NMatS=1 NMatT=0.
 -------------------------------------------------------------------
 Center     Atomic                   Forces (Hartrees/Bohr)
 Number     Number              X              Y              Z
 -------------------------------------------------------------------
      1       14           0.000002116   -0.000001564    0.000001609
      2        8          -0.000001080    0.000000516   -0.000000150
      3        1           0.000000752   -0.000000577   -0.000000152
      4        8          -0.000014718    0.000003232    0.000007110
      5        1           0.000008220   -0.000005770    0.000001260
      6        8           0.000000523   -0.000002032    0.000000153
      7        1          -0.000000692   -0.000001786    0.000000861
      8        8          -0.000002720    0.000002656   -0.000011201
      9        6           0.000002584    0.000001343    0.000008343
     10        1          -0.000000549    0.000000591   -0.000000385
     11        1          -0.000001133    0.000000078    0.000000596
     12        6          -0.000000592   -0.000002603    0.000000625
     13        1          -0.000000095    0.000000619    0.000000375
     14        1           0.000000567    0.000001413    0.000000434
     15        8           0.000006818    0.000003885   -0.000009476
 -------------------------------------------------------------------
 Cartesian Forces:  Max     0.000014718 RMS     0.000004172
 IRC-IRC-IRC-IRC-IRC-IRC-IRC-IRC-IRC-IRC-IRC-IRC-IRC-IRC-IRC-IRC-IRC-IRC
          ******** Start new reaction path calculation ********
 Supplied step size of   0.1000 bohr.
    Integration on MW PES will use step size of   0.2544 sqrt(amu)*bohr.
 Point Number:   0          Path Number:   1
 Calculating another point on the path.
 IRC-IRC-IRC-IRC-IRC-IRC-IRC-IRC-IRC-IRC-IRC-IRC-IRC-IRC-IRC-IRC-IRC-IRC
                          Input orientation:                          
 ---------------------------------------------------------------------
 Center     Atomic      Atomic             Coordinates (Angstroms)
 Number     Number       Type             X           Y           Z
 ---------------------------------------------------------------------
      1         14           0        0.751504    0.017400   -0.016788
      2          8           0        1.019793    0.010746    1.618948
      3          1           0        1.940097   -0.174671    1.791822
      4          8           0        0.596456    1.460426   -0.753939
      5          1           0       -0.354308    1.648287   -0.442976
      6          8           0        2.218988   -0.552558   -0.602043
      7          1           0        2.476033   -0.053006   -1.373059
      8          8           0       -0.296846   -1.177893   -0.434169
      9          6           0       -1.644925   -1.209039   -0.018400
     10          1           0       -1.690313   -1.481754    1.044205
     11          1           0       -2.155652   -1.985834   -0.601485
     12          6           0       -2.294597    0.162993   -0.202247
     13          1           0       -2.409174    0.321943   -1.300975
     14          1           0       -3.334161    0.082985    0.192576
     15          8           0       -1.548994    1.117092    0.409574
 ---------------------------------------------------------------------
                    Distance matrix (angstroms):
                    1          2          3          4          5
     1  Si   0.000000
     2  O    1.657605   0.000000
     3  H    2.172720   0.954581   0.000000
     4  O    1.627807   2.812718   3.310560   0.000000
     5  H    2.015998   2.970055   3.685348   1.017813   0.000000
     6  O    1.679549   2.586152   2.439501   2.589939   3.389819
     7  H    2.195092   3.328184   3.212242   2.491303   3.430784
     8  O    1.643768   2.713244   3.311405   2.803742   2.826777
     9  C    2.692031   3.357009   4.147192   3.562422   3.163900
    10  H    3.055428   3.146833   3.930302   4.137518   3.713997
    11  H    3.578600   4.358911   5.077734   4.412941   4.059162
    12  C    3.055212   3.784853   4.692862   3.216502   2.455355
    13  H    3.425167   4.514489   5.359867   3.260246   2.591877
    14  H    4.091552   4.582212   5.517406   4.271181   3.425438
    15  O    2.585227   3.047171   3.969007   2.464670   1.560860
                    6          7          8          9         10
     6  O    0.000000
     7  H    0.953986   0.000000
     8  O    2.597816   3.136199   0.000000
     9  C    3.962504   4.489299   1.411082   0.000000
    10  H    4.342370   5.024234   2.054184   1.097982   0.000000
    11  H    4.603451   5.077761   2.033697   1.097379   1.782957
    12  C    4.587407   4.916947   2.417183   1.529165   2.150348
    13  H    4.761633   4.900105   2.731810   2.138453   3.044660
    14  H    5.645600   6.018975   3.347821   2.137137   2.424029
    15  O    4.243676   4.554970   2.747132   2.367118   2.678942
                   11         12         13         14         15
    11  H    0.000000
    12  C    2.190013   0.000000
    13  H    2.424746   1.116063   0.000000
    14  H    2.509866   1.114890   1.772963   0.000000
    15  O    3.319401   1.356669   2.073198   2.074437   0.000000
 Symmetry turned off by external request.
 Stoichiometry    C2H7O5Si(1-)
 Framework group  C1[X(C2H7O5Si)]
 Deg. of freedom    39
 Full point group                 C1      NOp   1
 Rotational constants (GHZ):           2.8145073           1.4094038           1.2787263
 Standard basis: def2TZVPP (5D, 7F)
   357 basis functions,   545 primitive gaussians,   405 cartesian basis functions
    37 alpha electrons       37 beta electrons
       nuclear repulsion energy       531.2918259245 Hartrees.
 NAtoms=   15 NActive=   15 NUniq=   15 SFac= 1.00D+00 NAtFMM=   60 NAOKFM=F Big=F
 Integral buffers will be    131072 words long.
 Raffenetti 2 integral format.
 Two-electron integral symmetry is turned off.
 Nuclear repulsion after empirical dispersion term =      531.2851396265 Hartrees.
 One-electron integrals computed using PRISM.
   1 Symmetry operations used in ECPInt.
 ECPInt:  NShTT=    8911 NPrTT=   25186 LenC2=    8643 LenP2D=   19477.
 LDataN:  DoStor=T MaxTD1= 6 Len=  172
 NBasis=   357 RedAO= T EigKep=  3.39D-04  NBF=   357
 NBsUse=   357 1.00D-06 EigRej= -1.00D+00 NBFU=   357
 Initial guess from the checkpoint file:  "QL_MonoToBi_DeprotonatedLigandAttacking_IRC_reverse.chk"
 B after Tr=    -0.070629   -0.021025   -0.008849
         Rot=    1.000000   -0.000097   -0.000004    0.000052 Ang=  -0.01 deg.
 ExpMin= 7.01D-02 ExpMax= 4.48D+04 ExpMxC= 1.53D+03 IAcc=3 IRadAn=         5 AccDes= 0.00D+00
 Harris functional with IExCor= 4639 and IRadAn=       5 diagonalized for initial guess.
 HarFok:  IExCor= 4639 AccDes= 0.00D+00 IRadAn=         5 IDoV= 1 UseB2=F ITyADJ=14
 ICtDFT=  3500011 ScaDFX=  1.000000  1.000000  1.000000  1.000000
 FoFCou: FMM=F IPFlag=           0 FMFlag=      100000 FMFlg1=           0
         NFxFlg=           0 DoJE=T BraDBF=F KetDBF=T FulRan=T
         wScrn=  0.000000 ICntrl=       500 IOpCl=  0 I1Cent=   200000004 NGrid=           0
         NMat0=    1 NMatS0=      1 NMatT0=    0 NMatD0=    1 NMtDS0=    0 NMtDT0=    0
 Symmetry not used in FoFCou.
 Requested convergence on RMS density matrix=1.00D-08 within 128 cycles.
 Requested convergence on MAX density matrix=1.00D-06.
 Requested convergence on             energy=1.00D-06.
 No special actions if energy rises.
 Integral accuracy reduced to 1.0D-05 until final iterations.
 Initial convergence to 1.0D-05 achieved.  Increase integral accuracy.
 SCF Done:  E(RwB97XD) =  -746.334828198     A.U. after   11 cycles
            NFock= 11  Conv=0.67D-08     -V/T= 2.0033
 DoSCS=F DFT=T ScalE2(SS,OS)=  1.000000  1.000000
 Range of M.O.s used for correlation:     1   357
 NBasis=   357 NAE=    37 NBE=    37 NFC=     0 NFV=     0
 NROrb=    357 NOA=    37 NOB=    37 NVA=   320 NVB=   320

 **** Warning!!: The largest alpha MO coefficient is  0.11001383D+02

 Symmetrizing basis deriv contribution to polar:
 IMax=3 JMax=2 DiffMx= 0.00D+00
   1 Symmetry operations used in ECPInt.
 ECPInt:  NShTT=    8911 NPrTT=   25186 LenC2=    8643 LenP2D=   19477.
 LDataN:  DoStor=T MaxTD1= 7 Len=  274
 Calling FoFJK, ICntrl=      2127 FMM=F ISym2X=0 I1Cent= 0 IOpClX= 0 NMat=1 NMatS=1 NMatT=0.
 -------------------------------------------------------------------
 Center     Atomic                   Forces (Hartrees/Bohr)
 Number     Number              X              Y              Z
 -------------------------------------------------------------------
      1       14          -0.000701968    0.000428966    0.000080171
      2        8          -0.000044477    0.000151194    0.000056809
      3        1          -0.000096709    0.000007957   -0.000022971
      4        8           0.000552807    0.000015276   -0.000318048
      5        1          -0.000151826    0.000109961    0.000022258
      6        8          -0.000221707    0.000030200    0.000135107
      7        1          -0.000013344   -0.000001777    0.000032144
      8        8          -0.000090991   -0.000085609   -0.000146209
      9        6          -0.000025275   -0.000115619   -0.000097359
     10        1          -0.000005940   -0.000022533   -0.000025846
     11        1          -0.000003554    0.000011387   -0.000011979
     12        6           0.000068597   -0.000070633    0.000150126
     13        1           0.000003674    0.000017708    0.000044492
     14        1           0.000055631    0.000023314    0.000025741
     15        8           0.000675082   -0.000499791    0.000075564
 -------------------------------------------------------------------
 Cartesian Forces:  Max     0.000701968 RMS     0.000213198
 IRC-IRC-IRC-IRC-IRC-IRC-IRC-IRC-IRC-IRC-IRC-IRC-IRC-IRC-IRC-IRC-IRC-IRC
 Pt  1 Step number   1 out of a maximum of 100
 Modified Bulirsch-Stoer Extrapolation Cycles:
    EPS =    0.000010000000000
      PEZero:  N= 2 I= 1 D=  6.63D-04 Err=  1.48D-02
      PEZero:  N= 3 I= 2 D=  6.63D-04 Err=  2.27D-02
      PEZero:  N= 3 I= 1 D=  1.33D-03 Err=  1.92D-02
      PEZero:  N= 4 I= 3 D=  3.31D-04 Err=  3.92D-02
      PEZero:  N= 4 I= 2 D=  9.94D-04 Err=  2.95D-02
      PEZero:  N= 4 I= 1 D=  1.66D-03 Err=  2.39D-02
      PEZero:  N= 5 I= 4 D=  3.31D-04 Err=  3.51D-02
      PEZero:  N= 5 I= 3 D=  6.63D-04 Err=  1.36D-02
      PEZero:  N= 5 I= 2 D=  1.33D-03 Err=  1.21D-03
      PEZero:  N= 5 I= 1 D=  1.99D-03 Err=  9.17D-03
      PEZero:  N= 6 I= 5 D=  1.66D-04 Err=  7.96D-03
      PEZero:  N= 6 I= 4 D=  4.97D-04 Err=  2.45D-02
      PEZero:  N= 7 I= 6 D=  1.66D-04 Err=  1.99D-04
      PEZero:  N= 7 I= 5 D=  3.31D-04 Err=  7.66D-03
      PEZero:  N= 8 I= 7 D=  8.28D-05 Err=  1.29D-04
      PEZero:  N= 8 I= 6 D=  2.48D-04 Err=  2.73D-05
      PEZero:  N= 8 I= 5 D=  4.14D-04 Err=  8.17D-03
      PEZero:  N= 9 I= 8 D=  8.28D-05 Err=  8.51D-05
      PEZero:  N= 9 I= 7 D=  1.66D-04 Err=  1.25D-06
      PEZero:  N= 9 I= 6 D=  3.31D-04 Err=  1.24D-05
 Maximum DWI energy   std dev =  0.000000260 at pt     3
 Maximum DWI gradient std dev =  0.370022660 at pt    12
 CORRECTOR INTEGRATION CONVERGENCE:
   Recorrection delta-x convergence threshold:    0.010000
   Delta-x Convergence Met
 Point Number:   1          Path Number:   1
   CHANGE IN THE REACTION COORDINATE =    0.25419
   NET REACTION COORDINATE UP TO THIS POINT =    0.25419
  # OF POINTS ALONG THE PATH =   1
  # OF STEPS =   1

 Calculating another point on the path.
 IRC-IRC-IRC-IRC-IRC-IRC-IRC-IRC-IRC-IRC-IRC-IRC-IRC-IRC-IRC-IRC-IRC-IRC
                          Input orientation:                          
 ---------------------------------------------------------------------
 Center     Atomic      Atomic             Coordinates (Angstroms)
 Number     Number       Type             X           Y           Z
 ---------------------------------------------------------------------
      1         14           0        0.742171    0.021723   -0.015239
      2          8           0        1.015655    0.015411    1.619875
      3          1           0        1.935188   -0.180347    1.786441
      4          8           0        0.606716    1.464796   -0.762630
      5          1           0       -0.337010    1.666543   -0.460276
      6          8           0        2.212050   -0.551481   -0.597835
      7          1           0        2.472910   -0.049056   -1.365677
      8          8           0       -0.298840   -1.179400   -0.437616
      9          6           0       -1.646412   -1.213901   -0.022162
     10          1           0       -1.692116   -1.493060    1.038824
     11          1           0       -2.157763   -1.986621   -0.610045
     12          6           0       -2.291312    0.161137   -0.197144
     13          1           0       -2.412268    0.325736   -1.294421
     14          1           0       -3.328406    0.087767    0.205067
     15          8           0       -1.531638    1.105173    0.413443
 ---------------------------------------------------------------------
                    Distance matrix (angstroms):
                    1          2          3          4          5
     1  Si   0.000000
     2  O    1.657839   0.000000
     3  H    2.170293   0.954781   0.000000
     4  O    1.630767   2.818560   3.311963   0.000000
     5  H    2.016959   2.980431   3.690749   1.011305   0.000000
     6  O    1.681822   2.582821   2.428820   2.582562   3.381754
     7  H    2.196394   3.322840   3.200348   2.477518   3.414481
     8  O    1.644628   2.718223   3.306874   2.813794   2.846288
     9  C    2.689265   3.360669   4.143325   3.577750   3.194282
    10  H    3.054729   3.153590   3.929310   4.156774   3.750560
    11  H    3.577270   4.364775   5.075236   4.424692   4.084504
    12  C    3.042129   3.776087   4.681296   3.227672   2.480883
    13  H    3.417487   4.509997   5.352402   3.270247   2.607729
    14  H    4.077070   4.569221   5.502550   4.279933   3.447269
    15  O    2.554964   3.021881   3.944182   2.466786   1.582927
                    6          7          8          9         10
     6  O    0.000000
     7  H    0.953971   0.000000
     8  O    2.593168   3.133939   0.000000
     9  C    3.957010   4.486726   1.410583   0.000000
    10  H    4.336788   5.021375   2.054136   1.098048   0.000000
    11  H    4.599461   5.076246   2.033945   1.097352   1.783031
    12  C    4.576969   4.909935   2.413465   1.528805   2.150122
    13  H    4.758052   4.900052   2.732421   2.139079   3.044778
    14  H    5.634709   6.011757   3.346195   2.138943   2.423141
    15  O    4.216917   4.531437   2.731916   2.362420   2.677250
                   11         12         13         14         15
    11  H    0.000000
    12  C    2.191161   0.000000
    13  H    2.424900   1.116126   0.000000
    14  H    2.517518   1.114774   1.773246   0.000000
    15  O    3.316436   1.356881   2.073603   2.075309   0.000000
 Symmetry turned off by external request.
 Stoichiometry    C2H7O5Si(1-)
 Framework group  C1[X(C2H7O5Si)]
 Deg. of freedom    39
 Full point group                 C1      NOp   1
 Rotational constants (GHZ):           2.8095964           1.4159121           1.2844899
 Standard basis: def2TZVPP (5D, 7F)
   357 basis functions,   545 primitive gaussians,   405 cartesian basis functions
    37 alpha electrons       37 beta electrons
       nuclear repulsion energy       531.6952418691 Hartrees.
 NAtoms=   15 NActive=   15 NUniq=   15 SFac= 1.00D+00 NAtFMM=   60 NAOKFM=F Big=F
 Integral buffers will be    131072 words long.
 Raffenetti 2 integral format.
 Two-electron integral symmetry is turned off.
 Nuclear repulsion after empirical dispersion term =      531.6885703008 Hartrees.
 One-electron integrals computed using PRISM.
   1 Symmetry operations used in ECPInt.
 ECPInt:  NShTT=    8911 NPrTT=   25186 LenC2=    8643 LenP2D=   19482.
 LDataN:  DoStor=T MaxTD1= 6 Len=  172
 NBasis=   357 RedAO= T EigKep=  3.40D-04  NBF=   357
 NBsUse=   357 1.00D-06 EigRej= -1.00D+00 NBFU=   357
 Initial guess from the checkpoint file:  "QL_MonoToBi_DeprotonatedLigandAttacking_IRC_reverse.chk"
 B after Tr=     0.000120    0.000161   -0.000140
         Rot=    1.000000   -0.000111   -0.000012    0.000080 Ang=  -0.02 deg.
 ExpMin= 7.01D-02 ExpMax= 4.48D+04 ExpMxC= 1.53D+03 IAcc=3 IRadAn=         5 AccDes= 0.00D+00
 Harris functional with IExCor= 4639 and IRadAn=       5 diagonalized for initial guess.
 HarFok:  IExCor= 4639 AccDes= 0.00D+00 IRadAn=         5 IDoV= 1 UseB2=F ITyADJ=14
 ICtDFT=  3500011 ScaDFX=  1.000000  1.000000  1.000000  1.000000
 FoFCou: FMM=F IPFlag=           0 FMFlag=      100000 FMFlg1=           0
         NFxFlg=           0 DoJE=T BraDBF=F KetDBF=T FulRan=T
         wScrn=  0.000000 ICntrl=       500 IOpCl=  0 I1Cent=   200000004 NGrid=           0
         NMat0=    1 NMatS0=      1 NMatT0=    0 NMatD0=    1 NMtDS0=    0 NMtDT0=    0
 Symmetry not used in FoFCou.
 Requested convergence on RMS density matrix=1.00D-08 within 128 cycles.
 Requested convergence on MAX density matrix=1.00D-06.
 Requested convergence on             energy=1.00D-06.
 No special actions if energy rises.
 Integral accuracy reduced to 1.0D-05 until final iterations.
 Initial convergence to 1.0D-05 achieved.  Increase integral accuracy.
 SCF Done:  E(RwB97XD) =  -746.334952127     A.U. after   11 cycles
            NFock= 11  Conv=0.71D-08     -V/T= 2.0033
 DoSCS=F DFT=T ScalE2(SS,OS)=  1.000000  1.000000
 Range of M.O.s used for correlation:     1   357
 NBasis=   357 NAE=    37 NBE=    37 NFC=     0 NFV=     0
 NROrb=    357 NOA=    37 NOB=    37 NVA=   320 NVB=   320

 **** Warning!!: The largest alpha MO coefficient is  0.10824400D+02

 Symmetrizing basis deriv contribution to polar:
 IMax=3 JMax=2 DiffMx= 0.00D+00
   1 Symmetry operations used in ECPInt.
 ECPInt:  NShTT=    8911 NPrTT=   25186 LenC2=    8643 LenP2D=   19482.
 LDataN:  DoStor=T MaxTD1= 7 Len=  274
 Calling FoFJK, ICntrl=      2127 FMM=F ISym2X=0 I1Cent= 0 IOpClX= 0 NMat=1 NMatS=1 NMatT=0.
 -------------------------------------------------------------------
 Center     Atomic                   Forces (Hartrees/Bohr)
 Number     Number              X              Y              Z
 -------------------------------------------------------------------
      1       14          -0.001458042    0.000818312    0.000176814
      2        8          -0.000109210    0.000306074    0.000114965
      3        1          -0.000179973    0.000014575   -0.000045742
      4        8           0.000954197    0.000112799   -0.000620460
      5        1          -0.000111178    0.000200613   -0.000028281
      6        8          -0.000476214    0.000086313    0.000273616
      7        1          -0.000024728   -0.000000296    0.000063839
      8        8          -0.000169561   -0.000169430   -0.000262146
      9        6          -0.000065458   -0.000248027   -0.000214458
     10        1          -0.000010662   -0.000044324   -0.000048467
     11        1          -0.000004861    0.000018815   -0.000024376
     12        6           0.000165169   -0.000116444    0.000316900
     13        1           0.000011217    0.000033740    0.000087267
     14        1           0.000119240    0.000042039    0.000044560
     15        8           0.001360065   -0.001054758    0.000165968
 -------------------------------------------------------------------
 Cartesian Forces:  Max     0.001458042 RMS     0.000423137
 IRC-IRC-IRC-IRC-IRC-IRC-IRC-IRC-IRC-IRC-IRC-IRC-IRC-IRC-IRC-IRC-IRC-IRC
 Pt  2 Step number   1 out of a maximum of 100
 Modified Bulirsch-Stoer Extrapolation Cycles:
    EPS =    0.000010000000000
      PEZero:  N= 2 I= 1 D=  1.32D-03 Err=  2.38D-02
      PEZero:  N= 3 I= 2 D=  1.32D-03 Err=  4.32D-02
      PEZero:  N= 3 I= 1 D=  2.65D-03 Err=  4.10D-02
      PEZero:  N= 4 I= 3 D=  6.62D-04 Err=  8.16D-02
      PEZero:  N= 4 I= 2 D=  1.99D-03 Err=  6.56D-02
      PEZero:  N= 4 I= 1 D=  3.31D-03 Err=  5.42D-02
      PEZero:  N= 5 I= 4 D=  6.62D-04 Err=  5.57D-02
      PEZero:  N= 5 I= 3 D=  1.32D-03 Err=  1.98D-03
      PEZero:  N= 5 I= 2 D=  2.65D-03 Err=  3.08D-02
      PEZero:  N= 6 I= 5 D=  3.31D-04 Err=  2.15D-04
      PEZero:  N= 6 I= 4 D=  9.93D-04 Err=  5.54D-02
      PEZero:  N= 7 I= 6 D=  3.31D-04 Err=  2.86D-06
      PEZero:  N= 7 I= 5 D=  6.62D-04 Err=  2.12D-04
 Maximum DWI energy   std dev =  0.000000913 at pt   115
 Maximum DWI gradient std dev =  0.182249666 at pt   109
 CORRECTOR INTEGRATION CONVERGENCE:
   Recorrection delta-x convergence threshold:    0.010000
   Delta-x Convergence Met
 Point Number:   2          Path Number:   1
   CHANGE IN THE REACTION COORDINATE =    0.25426
   NET REACTION COORDINATE UP TO THIS POINT =    0.50845
  # OF POINTS ALONG THE PATH =   2
  # OF STEPS =   1

 Calculating another point on the path.
 IRC-IRC-IRC-IRC-IRC-IRC-IRC-IRC-IRC-IRC-IRC-IRC-IRC-IRC-IRC-IRC-IRC-IRC
                          Input orientation:                          
 ---------------------------------------------------------------------
 Center     Atomic      Atomic             Coordinates (Angstroms)
 Number     Number       Type             X           Y           Z
 ---------------------------------------------------------------------
      1         14           0        0.732467    0.026318   -0.013577
      2          8           0        1.011941    0.019674    1.620870
      3          1           0        1.930907   -0.184477    1.780730
      4          8           0        0.616585    1.469081   -0.770869
      5          1           0       -0.320573    1.685241   -0.477105
      6          8           0        2.204970   -0.550163   -0.593820
      7          1           0        2.469451   -0.044719   -1.358398
      8          8           0       -0.300790   -1.181221   -0.440705
      9          6           0       -1.647836   -1.218695   -0.025812
     10          1           0       -1.694146   -1.503941    1.033586
     11          1           0       -2.159956   -1.987360   -0.618241
     12          6           0       -2.287733    0.159231   -0.192406
     13          1           0       -2.414775    0.329495   -1.288080
     14          1           0       -3.322055    0.093050    0.217319
     15          8           0       -1.513851    1.093123    0.416613
 ---------------------------------------------------------------------
                    Distance matrix (angstroms):
                    1          2          3          4          5
     1  Si   0.000000
     2  O    1.658182   0.000000
     3  H    2.168002   0.954846   0.000000
     4  O    1.633550   2.824447   3.312455   0.000000
     5  H    2.018855   2.991857   3.696327   1.005628   0.000000
     6  O    1.684422   2.579319   2.418124   2.575201   3.374763
     7  H    2.197885   3.317305   3.188053   2.463715   3.399069
     8  O    1.645664   2.723143   3.302839   2.823949   2.866761
     9  C    2.686271   3.364452   4.140121   3.592612   3.224615
    10  H    3.053964   3.160572   3.929404   4.175452   3.786790
    11  H    3.575840   4.370668   5.073520   4.436155   4.109897
    12  C    3.028407   3.767664   4.669938   3.238115   2.505889
    13  H    3.409018   4.505592   5.344784   3.279529   2.623244
    14  H    4.061640   4.556190   5.487703   4.287524   3.467880
    15  O    2.523704   2.997024   3.919111   2.467837   1.604135
                    6          7          8          9         10
     6  O    0.000000
     7  H    0.953941   0.000000
     8  O    2.588535   3.131778   0.000000
     9  C    3.951415   4.483978   1.409990   0.000000
    10  H    4.331426   5.018611   2.054050   1.098105   0.000000
    11  H    4.595510   5.074751   2.034177   1.097308   1.783033
    12  C    4.566043   4.902237   2.409648   1.528365   2.149778
    13  H    4.753718   4.899045   2.732990   2.139721   3.044820
    14  H    5.623138   6.003616   3.344369   2.140747   2.422140
    15  O    4.189390   4.506888   2.716459   2.357582   2.675426
                   11         12         13         14         15
    11  H    0.000000
    12  C    2.192149   0.000000
    13  H    2.425167   1.116078   0.000000
    14  H    2.525221   1.114485   1.773497   0.000000
    15  O    3.313269   1.357185   2.073830   2.075925   0.000000
 Symmetry turned off by external request.
 Stoichiometry    C2H7O5Si(1-)
 Framework group  C1[X(C2H7O5Si)]
 Deg. of freedom    39
 Full point group                 C1      NOp   1
 Rotational constants (GHZ):           2.8051157           1.4226079           1.2904344
 Standard basis: def2TZVPP (5D, 7F)
   357 basis functions,   545 primitive gaussians,   405 cartesian basis functions
    37 alpha electrons       37 beta electrons
       nuclear repulsion energy       532.1289189030 Hartrees.
 NAtoms=   15 NActive=   15 NUniq=   15 SFac= 1.00D+00 NAtFMM=   60 NAOKFM=F Big=F
 Integral buffers will be    131072 words long.
 Raffenetti 2 integral format.
 Two-electron integral symmetry is turned off.
 Nuclear repulsion after empirical dispersion term =      532.1222628097 Hartrees.
 One-electron integrals computed using PRISM.
   1 Symmetry operations used in ECPInt.
 ECPInt:  NShTT=    8911 NPrTT=   25186 LenC2=    8643 LenP2D=   19484.
 LDataN:  DoStor=T MaxTD1= 6 Len=  172
 NBasis=   357 RedAO= T EigKep=  3.40D-04  NBF=   357
 NBsUse=   357 1.00D-06 EigRej= -1.00D+00 NBFU=   357
 Initial guess from the checkpoint file:  "QL_MonoToBi_DeprotonatedLigandAttacking_IRC_reverse.chk"
 B after Tr=     0.000124    0.000207   -0.000140
         Rot=    1.000000   -0.000100   -0.000010    0.000061 Ang=  -0.01 deg.
 ExpMin= 7.01D-02 ExpMax= 4.48D+04 ExpMxC= 1.53D+03 IAcc=3 IRadAn=         5 AccDes= 0.00D+00
 Harris functional with IExCor= 4639 and IRadAn=       5 diagonalized for initial guess.
 HarFok:  IExCor= 4639 AccDes= 0.00D+00 IRadAn=         5 IDoV= 1 UseB2=F ITyADJ=14
 ICtDFT=  3500011 ScaDFX=  1.000000  1.000000  1.000000  1.000000
 FoFCou: FMM=F IPFlag=           0 FMFlag=      100000 FMFlg1=           0
         NFxFlg=           0 DoJE=T BraDBF=F KetDBF=T FulRan=T
         wScrn=  0.000000 ICntrl=       500 IOpCl=  0 I1Cent=   200000004 NGrid=           0
         NMat0=    1 NMatS0=      1 NMatT0=    0 NMatD0=    1 NMtDS0=    0 NMtDT0=    0
 Symmetry not used in FoFCou.
 Requested convergence on RMS density matrix=1.00D-08 within 128 cycles.
 Requested convergence on MAX density matrix=1.00D-06.
 Requested convergence on             energy=1.00D-06.
 No special actions if energy rises.
 Integral accuracy reduced to 1.0D-05 until final iterations.
 Initial convergence to 1.0D-05 achieved.  Increase integral accuracy.
 SCF Done:  E(RwB97XD) =  -746.335167576     A.U. after   11 cycles
            NFock= 11  Conv=0.72D-08     -V/T= 2.0033
 DoSCS=F DFT=T ScalE2(SS,OS)=  1.000000  1.000000
 Range of M.O.s used for correlation:     1   357
 NBasis=   357 NAE=    37 NBE=    37 NFC=     0 NFV=     0
 NROrb=    357 NOA=    37 NOB=    37 NVA=   320 NVB=   320

 **** Warning!!: The largest alpha MO coefficient is  0.10784459D+02

 Symmetrizing basis deriv contribution to polar:
 IMax=3 JMax=2 DiffMx= 0.00D+00
   1 Symmetry operations used in ECPInt.
 ECPInt:  NShTT=    8911 NPrTT=   25186 LenC2=    8643 LenP2D=   19484.
 LDataN:  DoStor=T MaxTD1= 7 Len=  274
 Calling FoFJK, ICntrl=      2127 FMM=F ISym2X=0 I1Cent= 0 IOpClX= 0 NMat=1 NMatS=1 NMatT=0.
 -------------------------------------------------------------------
 Center     Atomic                   Forces (Hartrees/Bohr)
 Number     Number              X              Y              Z
 -------------------------------------------------------------------
      1       14          -0.002167116    0.001088253    0.000303397
      2        8          -0.000315633    0.000498548    0.000154362
      3        1          -0.000137531   -0.000008930   -0.000054119
      4        8           0.001291747    0.000340075   -0.000955205
      5        1           0.000027094    0.000237568   -0.000099112
      6        8          -0.000811573    0.000162047    0.000443869
      7        1          -0.000034350    0.000011667    0.000081947
      8        8          -0.000225023   -0.000278902   -0.000389291
      9        6          -0.000118735   -0.000421622   -0.000333225
     10        1          -0.000017163   -0.000071822   -0.000057451
     11        1          -0.000011296    0.000015987   -0.000045310
     12        6           0.000302850   -0.000162832    0.000476204
     13        1           0.000006478    0.000043547    0.000100087
     14        1           0.000144021    0.000057141    0.000074064
     15        8           0.002066229   -0.001510723    0.000299784
 -------------------------------------------------------------------
 Cartesian Forces:  Max     0.002167116 RMS     0.000626139
 IRC-IRC-IRC-IRC-IRC-IRC-IRC-IRC-IRC-IRC-IRC-IRC-IRC-IRC-IRC-IRC-IRC-IRC
 Pt  3 Step number   1 out of a maximum of 100
 Modified Bulirsch-Stoer Extrapolation Cycles:
    EPS =    0.000010000000000
      PEZero:  N= 2 I= 1 D=  1.32D-03 Err=  6.26D-02
      PEZero:  N= 3 I= 2 D=  1.32D-03 Err=  6.15D-02
      PEZero:  N= 3 I= 1 D=  2.65D-03 Err=  2.96D-02
      PEZero:  N= 4 I= 3 D=  6.62D-04 Err=  6.00D-06
      PEZero:  N= 4 I= 2 D=  1.99D-03 Err=  6.15D-02
 Maximum DWI energy   std dev =  0.000000528 at pt    43
 Maximum DWI gradient std dev =  0.076069448 at pt    56
 CORRECTOR INTEGRATION CONVERGENCE:
   Recorrection delta-x convergence threshold:    0.010000
   Delta-x Convergence Met
 Point Number:   3          Path Number:   1
   CHANGE IN THE REACTION COORDINATE =    0.25432
   NET REACTION COORDINATE UP TO THIS POINT =    0.76277
  # OF POINTS ALONG THE PATH =   3
  # OF STEPS =   1

 Calculating another point on the path.
 IRC-IRC-IRC-IRC-IRC-IRC-IRC-IRC-IRC-IRC-IRC-IRC-IRC-IRC-IRC-IRC-IRC-IRC
                          Input orientation:                          
 ---------------------------------------------------------------------
 Center     Atomic      Atomic             Coordinates (Angstroms)
 Number     Number       Type             X           Y           Z
 ---------------------------------------------------------------------
      1         14           0        0.722541    0.030884   -0.011899
      2          8           0        1.008329    0.023917    1.621882
      3          1           0        1.926694   -0.188669    1.774873
      4          8           0        0.626498    1.473256   -0.778989
      5          1           0       -0.303778    1.704888   -0.493970
      6          8           0        2.197764   -0.548779   -0.589854
      7          1           0        2.465846   -0.040377   -1.351168
      8          8           0       -0.302620   -1.183406   -0.443780
      9          6           0       -1.649157   -1.223450   -0.029390
     10          1           0       -1.696098   -1.514638    1.028433
     11          1           0       -2.162310   -1.987935   -0.626219
     12          6           0       -2.283901    0.157414   -0.187666
     13          1           0       -2.416832    0.333334   -1.281691
     14          1           0       -3.315298    0.098414    0.229486
     15          8           0       -1.496193    1.081349    0.419632
 ---------------------------------------------------------------------
                    Distance matrix (angstroms):
                    1          2          3          4          5
     1  Si   0.000000
     2  O    1.658603   0.000000
     3  H    2.165812   0.954983   0.000000
     4  O    1.636487   2.830294   3.312811   0.000000
     5  H    2.021884   3.004017   3.702460   1.000151   0.000000
     6  O    1.687106   2.575755   2.407300   2.567737   3.368371
     7  H    2.199508   3.311724   3.175659   2.449832   3.384015
     8  O    1.646807   2.728219   3.298752   2.834339   2.888730
     9  C    2.683022   3.368213   4.136767   3.607315   3.255924
    10  H    3.052988   3.167532   3.929375   4.193892   3.823822
    11  H    3.574267   4.376581   5.071741   4.447542   4.136252
    12  C    3.014232   3.759131   4.658373   3.248311   2.531677
    13  H    3.399927   4.500911   5.336786   3.288462   2.639443
    14  H    4.045611   4.542914   5.472579   4.294761   3.489040
    15  O    2.492484   2.972575   3.894326   2.469028   1.626445
                    6          7          8          9         10
     6  O    0.000000
     7  H    0.953907   0.000000
     8  O    2.583798   3.129581   0.000000
     9  C    3.945643   4.481072   1.409427   0.000000
    10  H    4.325956   5.015748   2.053998   1.098173   0.000000
    11  H    4.591595   5.073300   2.034453   1.097255   1.783041
    12  C    4.554754   4.894176   2.406006   1.527984   2.149457
    13  H    4.748816   4.897452   2.733584   2.140364   3.044852
    14  H    5.611064   5.994945   3.342541   2.142515   2.421169
    15  O    4.161935   4.482383   2.701705   2.353108   2.673901
                   11         12         13         14         15
    11  H    0.000000
    12  C    2.193088   0.000000
    13  H    2.425431   1.116023   0.000000
    14  H    2.532679   1.114126   1.773721   0.000000
    15  O    3.310290   1.357553   2.074030   2.076406   0.000000
 Symmetry turned off by external request.
 Stoichiometry    C2H7O5Si(1-)
 Framework group  C1[X(C2H7O5Si)]
 Deg. of freedom    39
 Full point group                 C1      NOp   1
 Rotational constants (GHZ):           2.8005427           1.4293151           1.2963754
 Standard basis: def2TZVPP (5D, 7F)
   357 basis functions,   545 primitive gaussians,   405 cartesian basis functions
    37 alpha electrons       37 beta electrons
       nuclear repulsion energy       532.5584053923 Hartrees.
 NAtoms=   15 NActive=   15 NUniq=   15 SFac= 1.00D+00 NAtFMM=   60 NAOKFM=F Big=F
 Integral buffers will be    131072 words long.
 Raffenetti 2 integral format.
 Two-electron integral symmetry is turned off.
 Nuclear repulsion after empirical dispersion term =      532.5517649584 Hartrees.
 One-electron integrals computed using PRISM.
   1 Symmetry operations used in ECPInt.
 ECPInt:  NShTT=    8911 NPrTT=   25186 LenC2=    8645 LenP2D=   19490.
 LDataN:  DoStor=T MaxTD1= 6 Len=  172
 NBasis=   357 RedAO= T EigKep=  3.41D-04  NBF=   357
 NBsUse=   357 1.00D-06 EigRej= -1.00D+00 NBFU=   357
 Initial guess from the checkpoint file:  "QL_MonoToBi_DeprotonatedLigandAttacking_IRC_reverse.chk"
 B after Tr=     0.000129    0.000221   -0.000132
         Rot=    1.000000   -0.000088   -0.000011    0.000071 Ang=  -0.01 deg.
 ExpMin= 7.01D-02 ExpMax= 4.48D+04 ExpMxC= 1.53D+03 IAcc=3 IRadAn=         5 AccDes= 0.00D+00
 Harris functional with IExCor= 4639 and IRadAn=       5 diagonalized for initial guess.
 HarFok:  IExCor= 4639 AccDes= 0.00D+00 IRadAn=         5 IDoV= 1 UseB2=F ITyADJ=14
 ICtDFT=  3500011 ScaDFX=  1.000000  1.000000  1.000000  1.000000
 FoFCou: FMM=F IPFlag=           0 FMFlag=      100000 FMFlg1=           0
         NFxFlg=           0 DoJE=T BraDBF=F KetDBF=T FulRan=T
         wScrn=  0.000000 ICntrl=       500 IOpCl=  0 I1Cent=   200000004 NGrid=           0
         NMat0=    1 NMatS0=      1 NMatT0=    0 NMatD0=    1 NMtDS0=    0 NMtDT0=    0
 Symmetry not used in FoFCou.
 Requested convergence on RMS density matrix=1.00D-08 within 128 cycles.
 Requested convergence on MAX density matrix=1.00D-06.
 Requested convergence on             energy=1.00D-06.
 No special actions if energy rises.
 Integral accuracy reduced to 1.0D-05 until final iterations.
 Initial convergence to 1.0D-05 achieved.  Increase integral accuracy.
 SCF Done:  E(RwB97XD) =  -746.335470053     A.U. after   11 cycles
            NFock= 11  Conv=0.70D-08     -V/T= 2.0034
 DoSCS=F DFT=T ScalE2(SS,OS)=  1.000000  1.000000
 Range of M.O.s used for correlation:     1   357
 NBasis=   357 NAE=    37 NBE=    37 NFC=     0 NFV=     0
 NROrb=    357 NOA=    37 NOB=    37 NVA=   320 NVB=   320

 **** Warning!!: The largest alpha MO coefficient is  0.10771550D+02

 Symmetrizing basis deriv contribution to polar:
 IMax=3 JMax=2 DiffMx= 0.00D+00
   1 Symmetry operations used in ECPInt.
 ECPInt:  NShTT=    8911 NPrTT=   25186 LenC2=    8645 LenP2D=   19490.
 LDataN:  DoStor=T MaxTD1= 7 Len=  274
 Calling FoFJK, ICntrl=      2127 FMM=F ISym2X=0 I1Cent= 0 IOpClX= 0 NMat=1 NMatS=1 NMatT=0.
 -------------------------------------------------------------------
 Center     Atomic                   Forces (Hartrees/Bohr)
 Number     Number              X              Y              Z
 -------------------------------------------------------------------
      1       14          -0.002906189    0.001494439    0.000397281
      2        8          -0.000437705    0.000652157    0.000203770
      3        1          -0.000170147   -0.000011303   -0.000074675
      4        8           0.001708125    0.000477919   -0.001271807
      5        1          -0.000005663    0.000258278   -0.000089310
      6        8          -0.001142638    0.000221122    0.000608183
      7        1          -0.000046739    0.000027374    0.000102963
      8        8          -0.000275509   -0.000444602   -0.000523553
      9        6          -0.000153294   -0.000567592   -0.000438581
     10        1          -0.000024495   -0.000103846   -0.000070536
     11        1          -0.000020822    0.000014941   -0.000067991
     12        6           0.000446757   -0.000233052    0.000601279
     13        1           0.000000487    0.000053617    0.000116206
     14        1           0.000162725    0.000075588    0.000113627
     15        8           0.002865107   -0.001915039    0.000393146
 -------------------------------------------------------------------
 Cartesian Forces:  Max     0.002906189 RMS     0.000842239
 IRC-IRC-IRC-IRC-IRC-IRC-IRC-IRC-IRC-IRC-IRC-IRC-IRC-IRC-IRC-IRC-IRC-IRC
 Pt  4 Step number   1 out of a maximum of 100
 Modified Bulirsch-Stoer Extrapolation Cycles:
    EPS =    0.000010000000000
      PEZero:  N= 2 I= 1 D=  1.32D-03 Err=  5.97D-02
      PEZero:  N= 3 I= 2 D=  1.32D-03 Err=  1.76D-05
      PEZero:  N= 3 I= 1 D=  2.65D-03 Err=  5.97D-02
      PEZero:  N= 4 I= 3 D=  6.62D-04 Err=  1.32D-05
      PEZero:  N= 4 I= 2 D=  1.99D-03 Err=  6.34D-08
      PEZero:  N= 4 I= 1 D=  3.31D-03 Err=  1.06D-05
 Maximum DWI energy   std dev =  0.000000444 at pt    36
 Maximum DWI gradient std dev =  0.065913249 at pt    75
 CORRECTOR INTEGRATION CONVERGENCE:
   Recorrection delta-x convergence threshold:    0.010000
   Delta-x Convergence Met
 Point Number:   4          Path Number:   1
   CHANGE IN THE REACTION COORDINATE =    0.25431
   NET REACTION COORDINATE UP TO THIS POINT =    1.01708
  # OF POINTS ALONG THE PATH =   4
  # OF STEPS =   1

 Calculating another point on the path.
 IRC-IRC-IRC-IRC-IRC-IRC-IRC-IRC-IRC-IRC-IRC-IRC-IRC-IRC-IRC-IRC-IRC-IRC
                          Input orientation:                          
 ---------------------------------------------------------------------
 Center     Atomic      Atomic             Coordinates (Angstroms)
 Number     Number       Type             X           Y           Z
 ---------------------------------------------------------------------
      1         14           0        0.712484    0.035652   -0.010331
      2          8           0        1.004637    0.028102    1.622897
      3          1           0        1.922320   -0.192635    1.768936
      4          8           0        0.635680    1.477219   -0.786760
      5          1           0       -0.288763    1.723248   -0.509047
      6          8           0        2.190415   -0.547461   -0.585872
      7          1           0        2.462362   -0.035527   -1.343430
      8          8           0       -0.304273   -1.186064   -0.446884
      9          6           0       -1.650296   -1.228221   -0.033078
     10          1           0       -1.698129   -1.525759    1.023039
     11          1           0       -2.164909   -1.988061   -0.634523
     12          6           0       -2.279649    0.155703   -0.182819
     13          1           0       -2.418858    0.337504   -1.274955
     14          1           0       -3.307625    0.104375    0.242541
     15          8           0       -1.477893    1.069950    0.422315
 ---------------------------------------------------------------------
                    Distance matrix (angstroms):
                    1          2          3          4          5
     1  Si   0.000000
     2  O    1.659170   0.000000
     3  H    2.163702   0.955088   0.000000
     4  O    1.639164   2.835933   3.312919   0.000000
     5  H    2.024647   3.015227   3.707924   0.996118   0.000000
     6  O    1.689836   2.572159   2.396434   2.560642   3.362789
     7  H    2.200975   3.305769   3.162776   2.436196   3.370190
     8  O    1.648322   2.733394   3.294613   2.844663   2.910018
     9  C    2.679669   3.371835   4.133192   3.621205   3.285040
    10  H    3.052362   3.174785   3.929532   4.211878   3.858711
    11  H    3.572733   4.382566   5.070069   4.458098   4.160467
    12  C    2.999504   3.750123   4.646205   3.257344   2.554848
    13  H    3.390530   4.495953   5.328427   3.296587   2.654092
    14  H    4.028640   4.528444   5.456227   4.300443   3.507015
    15  O    2.460632   2.947847   3.868973   2.468790   1.645680
                    6          7          8          9         10
     6  O    0.000000
     7  H    0.953901   0.000000
     8  O    2.578876   3.127588   0.000000
     9  C    3.939553   4.478114   1.408826   0.000000
    10  H    4.320467   5.013049   2.053996   1.098272   0.000000
    11  H    4.587651   5.072137   2.034790   1.097233   1.783009
    12  C    4.542946   4.885719   2.402536   1.527662   2.149320
    13  H    4.743774   4.895932   2.734671   2.141130   3.044992
    14  H    5.598178   5.985618   3.340758   2.144415   2.420123
    15  O    4.133877   4.457078   2.687469   2.349190   2.673402
                   11         12         13         14         15
    11  H    0.000000
    12  C    2.193838   0.000000
    13  H    2.425468   1.115881   0.000000
    14  H    2.540341   1.113688   1.773992   0.000000
    15  O    3.307617   1.358251   2.074275   2.076673   0.000000
 Symmetry turned off by external request.
 Stoichiometry    C2H7O5Si(1-)
 Framework group  C1[X(C2H7O5Si)]
 Deg. of freedom    39
 Full point group                 C1      NOp   1
 Rotational constants (GHZ):           2.7960717           1.4363673           1.3025347
 Standard basis: def2TZVPP (5D, 7F)
   357 basis functions,   545 primitive gaussians,   405 cartesian basis functions
    37 alpha electrons       37 beta electrons
       nuclear repulsion energy       533.0166199049 Hartrees.
 NAtoms=   15 NActive=   15 NUniq=   15 SFac= 1.00D+00 NAtFMM=   60 NAOKFM=F Big=F
 Integral buffers will be    131072 words long.
 Raffenetti 2 integral format.
 Two-electron integral symmetry is turned off.
 Nuclear repulsion after empirical dispersion term =      533.0099945307 Hartrees.
 One-electron integrals computed using PRISM.
   1 Symmetry operations used in ECPInt.
 ECPInt:  NShTT=    8911 NPrTT=   25186 LenC2=    8648 LenP2D=   19496.
 LDataN:  DoStor=T MaxTD1= 6 Len=  172
 NBasis=   357 RedAO= T EigKep=  3.42D-04  NBF=   357
 NBsUse=   357 1.00D-06 EigRej= -1.00D+00 NBFU=   357
 Initial guess from the checkpoint file:  "QL_MonoToBi_DeprotonatedLigandAttacking_IRC_reverse.chk"
 B after Tr=     0.000116    0.000228   -0.000098
         Rot=    1.000000   -0.000105   -0.000020    0.000069 Ang=  -0.01 deg.
 ExpMin= 7.01D-02 ExpMax= 4.48D+04 ExpMxC= 1.53D+03 IAcc=3 IRadAn=         5 AccDes= 0.00D+00
 Harris functional with IExCor= 4639 and IRadAn=       5 diagonalized for initial guess.
 HarFok:  IExCor= 4639 AccDes= 0.00D+00 IRadAn=         5 IDoV= 1 UseB2=F ITyADJ=14
 ICtDFT=  3500011 ScaDFX=  1.000000  1.000000  1.000000  1.000000
 FoFCou: FMM=F IPFlag=           0 FMFlag=      100000 FMFlg1=           0
         NFxFlg=           0 DoJE=T BraDBF=F KetDBF=T FulRan=T
         wScrn=  0.000000 ICntrl=       500 IOpCl=  0 I1Cent=   200000004 NGrid=           0
         NMat0=    1 NMatS0=      1 NMatT0=    0 NMatD0=    1 NMtDS0=    0 NMtDT0=    0
 Symmetry not used in FoFCou.
 Requested convergence on RMS density matrix=1.00D-08 within 128 cycles.
 Requested convergence on MAX density matrix=1.00D-06.
 Requested convergence on             energy=1.00D-06.
 No special actions if energy rises.
 Integral accuracy reduced to 1.0D-05 until final iterations.
 Initial convergence to 1.0D-05 achieved.  Increase integral accuracy.
 SCF Done:  E(RwB97XD) =  -746.335863642     A.U. after   11 cycles
            NFock= 11  Conv=0.66D-08     -V/T= 2.0034
 DoSCS=F DFT=T ScalE2(SS,OS)=  1.000000  1.000000
 Range of M.O.s used for correlation:     1   357
 NBasis=   357 NAE=    37 NBE=    37 NFC=     0 NFV=     0
 NROrb=    357 NOA=    37 NOB=    37 NVA=   320 NVB=   320

 **** Warning!!: The largest alpha MO coefficient is  0.10778689D+02

 Symmetrizing basis deriv contribution to polar:
 IMax=3 JMax=2 DiffMx= 0.00D+00
   1 Symmetry operations used in ECPInt.
 ECPInt:  NShTT=    8911 NPrTT=   25186 LenC2=    8648 LenP2D=   19496.
 LDataN:  DoStor=T MaxTD1= 7 Len=  274
 Calling FoFJK, ICntrl=      2127 FMM=F ISym2X=0 I1Cent= 0 IOpClX= 0 NMat=1 NMatS=1 NMatT=0.
 -------------------------------------------------------------------
 Center     Atomic                   Forces (Hartrees/Bohr)
 Number     Number              X              Y              Z
 -------------------------------------------------------------------
      1       14          -0.003817283    0.001911701    0.000571328
      2        8          -0.000578884    0.000795329    0.000235484
      3        1          -0.000175194   -0.000019923   -0.000087438
      4        8           0.001737332    0.000737621   -0.001479054
      5        1           0.000313774    0.000217865   -0.000212763
      6        8          -0.001433690    0.000297334    0.000727851
      7        1          -0.000057048    0.000025539    0.000139918
      8        8          -0.000320983   -0.000565771   -0.000629980
      9        6          -0.000175111   -0.000691715   -0.000544323
     10        1          -0.000028669   -0.000121670   -0.000091755
     11        1          -0.000024017    0.000026090   -0.000077516
     12        6           0.000611466   -0.000265585    0.000757717
     13        1           0.000003033    0.000062994    0.000142068
     14        1           0.000202380    0.000085743    0.000131394
     15        8           0.003742894   -0.002495553    0.000417068
 -------------------------------------------------------------------
 Cartesian Forces:  Max     0.003817283 RMS     0.001069048
 IRC-IRC-IRC-IRC-IRC-IRC-IRC-IRC-IRC-IRC-IRC-IRC-IRC-IRC-IRC-IRC-IRC-IRC
 Pt  5 Step number   1 out of a maximum of 100
 Modified Bulirsch-Stoer Extrapolation Cycles:
    EPS =    0.000010000000000
      PEZero:  N= 2 I= 1 D=  1.32D-03 Err=  1.50D-05
      PEZero:  N= 3 I= 2 D=  1.32D-03 Err=  1.00D-05
      PEZero:  N= 3 I= 1 D=  2.65D-03 Err=  1.54D-06
 Maximum DWI energy   std dev =  0.000000696 at pt    72
 Maximum DWI gradient std dev =  0.045678728 at pt    57
 CORRECTOR INTEGRATION CONVERGENCE:
   Recorrection delta-x convergence threshold:    0.010000
   Delta-x Convergence Met
 Point Number:   5          Path Number:   1
   CHANGE IN THE REACTION COORDINATE =    0.25433
   NET REACTION COORDINATE UP TO THIS POINT =    1.27140
  # OF POINTS ALONG THE PATH =   5
  # OF STEPS =   1

 Calculating another point on the path.
 IRC-IRC-IRC-IRC-IRC-IRC-IRC-IRC-IRC-IRC-IRC-IRC-IRC-IRC-IRC-IRC-IRC-IRC
                          Input orientation:                          
 ---------------------------------------------------------------------
 Center     Atomic      Atomic             Coordinates (Angstroms)
 Number     Number       Type             X           Y           Z
 ---------------------------------------------------------------------
      1         14           0        0.702141    0.040571   -0.008619
      2          8           0        1.001283    0.031978    1.623920
      3          1           0        1.918351   -0.196006    1.762898
      4          8           0        0.644566    1.481255   -0.794217
      5          1           0       -0.273083    1.741989   -0.524486
      6          8           0        2.183059   -0.545964   -0.582071
      7          1           0        2.458649   -0.031122   -1.336248
      8          8           0       -0.305846   -1.188796   -0.449833
      9          6           0       -1.651350   -1.232793   -0.036528
     10          1           0       -1.700033   -1.535903    1.018019
     11          1           0       -2.167461   -1.988304   -0.641988
     12          6           0       -2.275250    0.153924   -0.178315
     13          1           0       -2.420203    0.341492   -1.268550
     14          1           0       -3.299768    0.110315    0.254800
     15          8           0       -1.459525    1.058228    0.424608
 ---------------------------------------------------------------------
                    Distance matrix (angstroms):
                    1          2          3          4          5
     1  Si   0.000000
     2  O    1.659742   0.000000
     3  H    2.161806   0.955146   0.000000
     4  O    1.641966   2.841661   3.312789   0.000000
     5  H    2.027808   3.027176   3.713534   0.991371   0.000000
     6  O    1.692923   2.568464   2.385670   2.553740   3.357183
     7  H    2.202966   3.300074   3.150209   2.423217   3.356374
     8  O    1.649864   2.738490   3.290724   2.855005   2.931919
     9  C    2.676033   3.375381   4.129846   3.634746   3.314672
    10  H    3.051179   3.181584   3.929742   4.229017   3.893595
    11  H    3.571009   4.388258   5.068497   4.468613   4.185398
    12  C    2.984376   3.741469   4.634333   3.265955   2.578848
    13  H    3.380386   4.490963   5.319927   3.304067   2.669297
    14  H    4.011176   4.514384   5.440308   4.305541   3.525687
    15  O    2.428191   2.923544   3.843717   2.468133   1.666119
                    6          7          8          9         10
     6  O    0.000000
     7  H    0.953832   0.000000
     8  O    2.573979   3.125440   0.000000
     9  C    3.933452   4.474972   1.408239   0.000000
    10  H    4.314936   5.010147   2.053979   1.098324   0.000000
    11  H    4.583771   5.070843   2.035128   1.097155   1.782912
    12  C    4.530935   4.876971   2.398993   1.527199   2.148861
    13  H    4.738022   4.893529   2.735431   2.141818   3.044939
    14  H    5.585020   5.975852   3.338827   2.146181   2.419026
    15  O    4.105514   4.431634   2.672964   2.344828   2.671983
                   11         12         13         14         15
    11  H    0.000000
    12  C    2.194482   0.000000
    13  H    2.425780   1.115708   0.000000
    14  H    2.547656   1.113161   1.774168   0.000000
    15  O    3.304566   1.358930   2.074463   2.076986   0.000000
 Symmetry turned off by external request.
 Stoichiometry    C2H7O5Si(1-)
 Framework group  C1[X(C2H7O5Si)]
 Deg. of freedom    39
 Full point group                 C1      NOp   1
 Rotational constants (GHZ):           2.7921025           1.4434324           1.3087985
 Standard basis: def2TZVPP (5D, 7F)
   357 basis functions,   545 primitive gaussians,   405 cartesian basis functions
    37 alpha electrons       37 beta electrons
       nuclear repulsion energy       533.4986986846 Hartrees.
 NAtoms=   15 NActive=   15 NUniq=   15 SFac= 1.00D+00 NAtFMM=   60 NAOKFM=F Big=F
 Integral buffers will be    131072 words long.
 Raffenetti 2 integral format.
 Two-electron integral symmetry is turned off.
 Nuclear repulsion after empirical dispersion term =      533.4920884422 Hartrees.
 One-electron integrals computed using PRISM.
[...]
      7        1           0.000068699    0.000265176    0.000107706
      8        8          -0.000336351   -0.001347562   -0.001176249
      9        6          -0.000253613   -0.001318533   -0.001760664
     10        1          -0.000086133   -0.000254879   -0.000248612
     11        1          -0.000020367    0.000169302   -0.000205456
     12        6           0.001680138   -0.000490007    0.002166692
     13        1          -0.000084825    0.000126542    0.000141743
     14        1           0.000170139    0.000012696    0.000299198
     15        8           0.005337453   -0.003028303    0.000643352
 -------------------------------------------------------------------
 Cartesian Forces:  Max     0.005337453 RMS     0.001901252
 IRC-IRC-IRC-IRC-IRC-IRC-IRC-IRC-IRC-IRC-IRC-IRC-IRC-IRC-IRC-IRC-IRC-IRC
 Error in corrector energy =          -0.0000543302
 Magnitude of corrector gradient =     0.0110378290
 Magnitude of analytic gradient =      0.0127539853
 Magnitude of difference =             0.0068485033
 Angle between gradients (degrees)=   32.4482
 Pt 23 Step number  98 out of a maximum of 100
 Modified Bulirsch-Stoer Extrapolation Cycles:
    EPS =    0.000010000000000
      PEZero:  N= 2 I= 1 D=  1.32D-03 Err=  2.35D-04
      PEZero:  N= 3 I= 2 D=  1.32D-03 Err=  1.56D-04
      PEZero:  N= 3 I= 1 D=  2.65D-03 Err=  2.51D-07
 Maximum DWI energy   std dev =  0.000002006 at pt    26
 Maximum DWI gradient std dev =  0.250503576 at pt    29
 CORRECTOR INTEGRATION CONVERGENCE:
   Recorrection delta-x convergence threshold:    0.010000
   Delta-x Convergence NOT Met
 IRC-IRC-IRC-IRC-IRC-IRC-IRC-IRC-IRC-IRC-IRC-IRC-IRC-IRC-IRC-IRC-IRC-IRC
                          Input orientation:                          
 ---------------------------------------------------------------------
 Center     Atomic      Atomic             Coordinates (Angstroms)
 Number     Number       Type             X           Y           Z
 ---------------------------------------------------------------------
      1         14           0        0.517985    0.129384    0.021201
      2          8           0        0.954503    0.092088    1.643426
      3          1           0        1.862146   -0.217620    1.653687
      4          8           0        0.773719    1.534355   -0.898021
      5          1           0       -0.012914    2.055821   -0.759221
      6          8           0        2.045134   -0.517351   -0.524401
      7          1           0        2.391194    0.067953   -1.192957
      8          8           0       -0.327797   -1.251332   -0.495602
      9          6           0       -1.663734   -1.308960   -0.098096
     10          1           0       -1.744831   -1.720965    0.919458
     11          1           0       -2.228104   -1.959983   -0.777583
     12          6           0       -2.171211    0.126926   -0.098721
     13          1           0       -2.409649    0.424459   -1.140095
     14          1           0       -3.099234    0.225134    0.486118
     15          8           0       -1.143304    0.874736    0.435957
 ---------------------------------------------------------------------
                    Distance matrix (angstroms):
                    1          2          3          4          5
     1  Si   0.000000
     2  O    1.680343   0.000000
     3  H    2.142939   0.959082   0.000000
     4  O    1.698326   2.927758   3.281051   0.000000
     5  H    2.145244   3.250362   3.808740   0.953931   0.000000
     6  O    1.745890   2.502072   2.206216   2.442455   3.303319
     7  H    2.233129   3.179581   2.909438   2.203077   3.149521
     8  O    1.699650   2.832757   3.237878   3.022470   3.332553
     9  C    2.615906   3.442528   4.085535   3.829555   3.805791
    10  H    3.057939   3.331320   3.976106   4.499269   4.481251
    11  H    3.541824   4.494582   5.067252   4.608236   4.586293
    12  C    2.691869   3.578599   4.411078   3.360408   2.969030
    13  H    3.163340   4.379038   5.144483   3.379985   2.924166
    14  H    3.648231   4.217801   5.116105   4.316209   3.798375
    15  O    1.867472   2.543877   3.421817   2.426843   2.025140
                    6          7          8          9         10
     6  O    0.000000
     7  H    0.953576   0.000000
     8  O    2.484020   3.101569   0.000000
     9  C    3.816292   4.420074   1.395013   0.000000
    10  H    4.230513   4.976869   2.056924   1.100792   0.000000
    11  H    4.517283   5.061914   2.047649   1.097290   1.780627
    12  C    4.286473   4.692160   2.335655   1.522925   2.152485
    13  H    4.594690   4.814352   2.749137   2.155664   3.047390
    14  H    5.294993   5.743588   3.290074   2.180690   2.410289
    15  O    3.609200   3.974536   2.460288   2.307507   2.708001
                   11         12         13         14         15
    11  H    0.000000
    12  C    2.195285   0.000000
    13  H    2.418664   1.108980   0.000000
    14  H    2.670307   1.101321   1.777590   0.000000
    15  O    3.268807   1.379019   2.071309   2.061592   0.000000
 Symmetry turned off by external request.
 Stoichiometry    C2H7O5Si(1-)
 Framework group  C1[X(C2H7O5Si)]
 Deg. of freedom    39
 Full point group                 C1      NOp   1
 Rotational constants (GHZ):           2.7592399           1.5617097           1.4202673
 Standard basis: def2TZVPP (5D, 7F)
   357 basis functions,   545 primitive gaussians,   405 cartesian basis functions
    37 alpha electrons       37 beta electrons
       nuclear repulsion energy       543.7852468778 Hartrees.
 NAtoms=   15 NActive=   15 NUniq=   15 SFac= 1.00D+00 NAtFMM=   60 NAOKFM=F Big=F
 Integral buffers will be    131072 words long.
 Raffenetti 2 integral format.
 Two-electron integral symmetry is turned off.
 Nuclear repulsion after empirical dispersion term =      543.7788136016 Hartrees.
 One-electron integrals computed using PRISM.
   1 Symmetry operations used in ECPInt.
 ECPInt:  NShTT=    8911 NPrTT=   25186 LenC2=    8690 LenP2D=   19641.
 LDataN:  DoStor=T MaxTD1= 6 Len=  172
 NBasis=   357 RedAO= T EigKep=  3.39D-04  NBF=   357
 NBsUse=   357 1.00D-06 EigRej= -1.00D+00 NBFU=   357
 Initial guess from the checkpoint file:  "QL_MonoToBi_DeprotonatedLigandAttacking_IRC_reverse.chk"
 B after Tr=    -0.000024   -0.000227   -0.000061
         Rot=    1.000000   -0.000079   -0.000066    0.000003 Ang=  -0.01 deg.
 ExpMin= 7.01D-02 ExpMax= 4.48D+04 ExpMxC= 1.53D+03 IAcc=3 IRadAn=         5 AccDes= 0.00D+00
 Harris functional with IExCor= 4639 and IRadAn=       5 diagonalized for initial guess.
 HarFok:  IExCor= 4639 AccDes= 0.00D+00 IRadAn=         5 IDoV= 1 UseB2=F ITyADJ=14
 ICtDFT=  3500011 ScaDFX=  1.000000  1.000000  1.000000  1.000000
 FoFCou: FMM=F IPFlag=           0 FMFlag=      100000 FMFlg1=           0
         NFxFlg=           0 DoJE=T BraDBF=F KetDBF=T FulRan=T
         wScrn=  0.000000 ICntrl=       500 IOpCl=  0 I1Cent=   200000004 NGrid=           0
         NMat0=    1 NMatS0=      1 NMatT0=    0 NMatD0=    1 NMtDS0=    0 NMtDT0=    0
 Symmetry not used in FoFCou.
 Requested convergence on RMS density matrix=1.00D-08 within 128 cycles.
 Requested convergence on MAX density matrix=1.00D-06.
 Requested convergence on             energy=1.00D-06.
 No special actions if energy rises.
 Integral accuracy reduced to 1.0D-05 until final iterations.
 Initial convergence to 1.0D-05 achieved.  Increase integral accuracy.
 SCF Done:  E(RwB97XD) =  -746.355122458     A.U. after    9 cycles
            NFock=  9  Conv=0.89D-08     -V/T= 2.0034
 DoSCS=F DFT=T ScalE2(SS,OS)=  1.000000  1.000000
 Range of M.O.s used for correlation:     1   357
 NBasis=   357 NAE=    37 NBE=    37 NFC=     0 NFV=     0
 NROrb=    357 NOA=    37 NOB=    37 NVA=   320 NVB=   320

 **** Warning!!: The largest alpha MO coefficient is  0.13086577D+02

 Symmetrizing basis deriv contribution to polar:
 IMax=3 JMax=2 DiffMx= 0.00D+00
   1 Symmetry operations used in ECPInt.
 ECPInt:  NShTT=    8911 NPrTT=   25186 LenC2=    8690 LenP2D=   19641.
 LDataN:  DoStor=T MaxTD1= 7 Len=  274
 Calling FoFJK, ICntrl=      2127 FMM=F ISym2X=0 I1Cent= 0 IOpClX= 0 NMat=1 NMatS=1 NMatT=0.
 -------------------------------------------------------------------
 Center     Atomic                   Forces (Hartrees/Bohr)
 Number     Number              X              Y              Z
 -------------------------------------------------------------------
      1       14          -0.005064584    0.002675706    0.000688863
      2        8           0.002187287    0.000793053    0.000281514
      3        1          -0.003097246    0.001183673    0.000115421
      4        8           0.004931777   -0.001277964   -0.002356689
      5        1          -0.002008991    0.002206011    0.000029781
      6        8          -0.003223138    0.000486128    0.000929131
      7        1          -0.000138547   -0.000050731    0.000529545
      8        8          -0.000316486   -0.001360029   -0.001215590
      9        6          -0.000171016   -0.001239377   -0.001652021
     10        1          -0.000087923   -0.000328937   -0.000206015
     11        1          -0.000087250    0.000127975   -0.000280086
     12        6           0.001666599   -0.000420507    0.001993716
     13        1          -0.000000971    0.000117035    0.000305726
     14        1           0.000306268    0.000011496    0.000308106
     15        8           0.005104221   -0.002923533    0.000528599
 -------------------------------------------------------------------
 Cartesian Forces:  Max     0.005104221 RMS     0.001838325
 IRC-IRC-IRC-IRC-IRC-IRC-IRC-IRC-IRC-IRC-IRC-IRC-IRC-IRC-IRC-IRC-IRC-IRC
 Error in corrector energy =          -0.0000490176
 Magnitude of corrector gradient =     0.0112378043
 Magnitude of analytic gradient =      0.0123318590
 Magnitude of difference =             0.0066525308
 Angle between gradients (degrees)=   32.3661
 Pt 23 Step number  99 out of a maximum of 100
 Modified Bulirsch-Stoer Extrapolation Cycles:
    EPS =    0.000010000000000
      PEZero:  N= 2 I= 1 D=  1.32D-03 Err=  2.25D-04
      PEZero:  N= 3 I= 2 D=  1.32D-03 Err=  1.50D-04
      PEZero:  N= 3 I= 1 D=  2.65D-03 Err=  5.21D-07
 Maximum DWI energy   std dev =  0.000004943 at pt    23
 Maximum DWI gradient std dev =  0.332650817 at pt    58
 CORRECTOR INTEGRATION CONVERGENCE:
   Recorrection delta-x convergence threshold:    0.010000
   Delta-x Convergence NOT Met
 IRC-IRC-IRC-IRC-IRC-IRC-IRC-IRC-IRC-IRC-IRC-IRC-IRC-IRC-IRC-IRC-IRC-IRC
                          Input orientation:                          
 ---------------------------------------------------------------------
 Center     Atomic      Atomic             Coordinates (Angstroms)
 Number     Number       Type             X           Y           Z
 ---------------------------------------------------------------------
      1         14           0        0.518147    0.129244    0.021261
      2          8           0        0.954378    0.091058    1.642785
      3          1           0        1.859696   -0.203735    1.662596
      4          8           0        0.774310    1.533543   -0.898022
      5          1           0       -0.013737    2.062982   -0.760952
      6          8           0        2.045195   -0.517296   -0.524444
      7          1           0        2.390533    0.067503   -1.193094
      8          8           0       -0.327790   -1.251326   -0.495485
      9          6           0       -1.663728   -1.308918   -0.098171
     10          1           0       -1.745173   -1.721987    0.919041
     11          1           0       -2.228317   -1.959340   -0.778381
     12          6           0       -2.171109    0.127066   -0.098632
     13          1           0       -2.409526    0.424649   -1.139689
     14          1           0       -3.098714    0.225031    0.486657
     15          8           0       -1.143598    0.875171    0.435826
 ---------------------------------------------------------------------
                    Distance matrix (angstroms):
                    1          2          3          4          5
     1  Si   0.000000
     2  O    1.679611   0.000000
     3  H    2.145835   0.952311   0.000000
     4  O    1.697868   2.927265   3.279170   0.000000
     5  H    2.152696   3.256329   3.810687   0.959225   0.000000
     6  O    1.745762   2.501371   2.217177   2.441444   3.309527
     7  H    2.232555   3.178884   2.917246   2.201934   3.154234
     8  O    1.699591   2.831633   3.246515   3.021945   3.339721
     9  C    2.615941   3.441706   4.090996   3.829278   3.812015
    10  H    3.058706   3.331444   3.981589   4.499777   4.488456
    11  H    3.541846   4.493965   5.074679   4.607637   4.591704
    12  C    2.691928   3.578058   4.411207   3.360461   2.973330
    13  H    3.163279   4.378275   5.145282   3.380068   2.927009
    14  H    3.647937   4.216887   5.113951   4.316231   3.801536
    15  O    1.868065   2.544226   3.418885   2.427133   2.029719
                    6          7          8          9         10
     6  O    0.000000
     7  H    0.953069   0.000000
     8  O    2.484089   3.100846   0.000000
     9  C    3.816344   4.419323   1.394957   0.000000
    10  H    4.231055   4.976691   2.057033   1.100900   0.000000
    11  H    4.517397   5.061013   2.047759   1.097495   1.780732
    12  C    4.286460   4.691479   2.335655   1.522986   2.153155
    13  H    4.594597   4.813623   2.749093   2.155512   3.047587
    14  H    5.294636   5.742665   3.289719   2.180415   2.410375
    15  O    3.609638   3.974392   2.460665   2.307798   2.709358
                   11         12         13         14         15
    11  H    0.000000
    12  C    2.195091   0.000000
    13  H    2.418013   1.108693   0.000000
    14  H    2.670092   1.101186   1.777591   0.000000
    15  O    3.268848   1.378799   2.070699   2.061005   0.000000
 Symmetry turned off by external request.
 Stoichiometry    C2H7O5Si(1-)
 Framework group  C1[X(C2H7O5Si)]
 Deg. of freedom    39
 Full point group                 C1      NOp   1
 Rotational constants (GHZ):           2.7594079           1.5616846           1.4202592
 Standard basis: def2TZVPP (5D, 7F)
   357 basis functions,   545 primitive gaussians,   405 cartesian basis functions
    37 alpha electrons       37 beta electrons
       nuclear repulsion energy       543.7858806064 Hartrees.
 NAtoms=   15 NActive=   15 NUniq=   15 SFac= 1.00D+00 NAtFMM=   60 NAOKFM=F Big=F
 Integral buffers will be    131072 words long.
 Raffenetti 2 integral format.
 Two-electron integral symmetry is turned off.
 Nuclear repulsion after empirical dispersion term =      543.7794501906 Hartrees.
 One-electron integrals computed using PRISM.
   1 Symmetry operations used in ECPInt.
 ECPInt:  NShTT=    8911 NPrTT=   25186 LenC2=    8690 LenP2D=   19640.
 LDataN:  DoStor=T MaxTD1= 6 Len=  172
 NBasis=   357 RedAO= T EigKep=  3.39D-04  NBF=   357
 NBsUse=   357 1.00D-06 EigRej= -1.00D+00 NBFU=   357
 Initial guess from the checkpoint file:  "QL_MonoToBi_DeprotonatedLigandAttacking_IRC_reverse.chk"
 B after Tr=     0.000024    0.000227    0.000061
         Rot=    1.000000    0.000079    0.000066   -0.000003 Ang=   0.01 deg.
 ExpMin= 7.01D-02 ExpMax= 4.48D+04 ExpMxC= 1.53D+03 IAcc=3 IRadAn=         5 AccDes= 0.00D+00
 Harris functional with IExCor= 4639 and IRadAn=       5 diagonalized for initial guess.
 HarFok:  IExCor= 4639 AccDes= 0.00D+00 IRadAn=         5 IDoV= 1 UseB2=F ITyADJ=14
 ICtDFT=  3500011 ScaDFX=  1.000000  1.000000  1.000000  1.000000
 FoFCou: FMM=F IPFlag=           0 FMFlag=      100000 FMFlg1=           0
         NFxFlg=           0 DoJE=T BraDBF=F KetDBF=T FulRan=T
         wScrn=  0.000000 ICntrl=       500 IOpCl=  0 I1Cent=   200000004 NGrid=           0
         NMat0=    1 NMatS0=      1 NMatT0=    0 NMatD0=    1 NMtDS0=    0 NMtDT0=    0
 Symmetry not used in FoFCou.
 Requested convergence on RMS density matrix=1.00D-08 within 128 cycles.
 Requested convergence on MAX density matrix=1.00D-06.
 Requested convergence on             energy=1.00D-06.
 No special actions if energy rises.
 Integral accuracy reduced to 1.0D-05 until final iterations.
 Initial convergence to 1.0D-05 achieved.  Increase integral accuracy.
 SCF Done:  E(RwB97XD) =  -746.355118995     A.U. after    9 cycles
            NFock=  9  Conv=0.80D-08     -V/T= 2.0033
 DoSCS=F DFT=T ScalE2(SS,OS)=  1.000000  1.000000
 Range of M.O.s used for correlation:     1   357
 NBasis=   357 NAE=    37 NBE=    37 NFC=     0 NFV=     0
 NROrb=    357 NOA=    37 NOB=    37 NVA=   320 NVB=   320

 **** Warning!!: The largest alpha MO coefficient is  0.13092437D+02

 Symmetrizing basis deriv contribution to polar:
 IMax=3 JMax=2 DiffMx= 0.00D+00
   1 Symmetry operations used in ECPInt.
 ECPInt:  NShTT=    8911 NPrTT=   25186 LenC2=    8690 LenP2D=   19640.
 LDataN:  DoStor=T MaxTD1= 7 Len=  274
 Calling FoFJK, ICntrl=      2127 FMM=F ISym2X=0 I1Cent= 0 IOpClX= 0 NMat=1 NMatS=1 NMatT=0.
 -------------------------------------------------------------------
 Center     Atomic                   Forces (Hartrees/Bohr)
 Number     Number              X              Y              Z
 -------------------------------------------------------------------
      1       14          -0.005103125    0.002602815    0.000574776
      2        8          -0.004481516    0.003347866    0.000776672
      3        1           0.003278990   -0.001197733   -0.000200154
      4        8           0.000790081    0.002201956   -0.001928108
      5        1           0.002471138   -0.001361493   -0.000481746
      6        8          -0.003430349    0.000272648    0.001290259
      7        1           0.000068318    0.000264610    0.000108347
      8        8          -0.000336425   -0.001347608   -0.001176291
      9        6          -0.000253507   -0.001318471   -0.001760463
     10        1          -0.000086145   -0.000254921   -0.000248676
     11        1          -0.000020408    0.000169323   -0.000205485
     12        6           0.001679841   -0.000489819    0.002166612
     13        1          -0.000084645    0.000126517    0.000142130
     14        1           0.000170661    0.000012627    0.000298971
     15        8           0.005337092   -0.003028315    0.000643157
 -------------------------------------------------------------------
 Cartesian Forces:  Max     0.005337092 RMS     0.001901178
 IRC-IRC-IRC-IRC-IRC-IRC-IRC-IRC-IRC-IRC-IRC-IRC-IRC-IRC-IRC-IRC-IRC-IRC
 Error in corrector energy =          -0.0000543036
 Magnitude of corrector gradient =     0.0110373722
 Magnitude of analytic gradient =      0.0127534890
 Magnitude of difference =             0.0068453607
 Angle between gradients (degrees)=   32.4332
 Pt 23 Step number 100 out of a maximum of 100
 Modified Bulirsch-Stoer Extrapolation Cycles:
    EPS =    0.000010000000000
      PEZero:  N= 2 I= 1 D=  1.32D-03 Err=  2.35D-04
      PEZero:  N= 3 I= 2 D=  1.32D-03 Err=  1.56D-04
      PEZero:  N= 3 I= 1 D=  2.65D-03 Err=  2.51D-07
 Maximum DWI energy   std dev =  0.000002013 at pt    26
 Maximum DWI gradient std dev =  0.250672729 at pt    29
 CORRECTOR INTEGRATION CONVERGENCE:
   Recorrection delta-x convergence threshold:    0.010000
   Delta-x Convergence NOT Met
 Maximum number of corrector steps exceded.
 Error termination via Lnk1e in /opt/software/gaussian/g16.c01/l123.exe at Fri Feb 16 02:16:06 2024.
 Job cpu time:       1 days 10 hours 46 minutes 18.1 seconds.
 Elapsed time:       0 days  9 hours 28 minutes 10.6 seconds.
 File lengths (MBytes):  RWF=    177 Int=      0 D2E=      0 Chk=     11 Scr=      1
