 Entering Gaussian System, Link 0=/opt/software/gaussian/g16.c01/g16
 Initial command:
 /opt/software/gaussian/g16.c01/l1.exe "/scratch/arhender/25257183/Gau-36008.inp" -scrdir="/scratch/arhender/25257183/"
 Entering Link 1 = /opt/software/gaussian/g16.c01/l1.exe PID=     36022.
  
 Copyright (c) 1988-2019, Gaussian, Inc.  All Rights Reserved.
  
 This is part of the Gaussian(R) 16 program.  It is based on
 the Gaussian(R) 09 system (copyright 2009, Gaussian, Inc.),
 the Gaussian(R) 03 system (copyright 2003, Gaussian, Inc.),
 the Gaussian(R) 98 system (copyright 1998, Gaussian, Inc.),
 the Gaussian(R) 94 system (copyright 1995, Gaussian, Inc.),
 the Gaussian 92(TM) system (copyright 1992, Gaussian, Inc.),
 the Gaussian 90(TM) system (copyright 1990, Gaussian, Inc.),
 the Gaussian 88(TM) system (copyright 1988, Gaussian, Inc.),
 the Gaussian 86(TM) system (copyright 1986, Carnegie Mellon
 University), and the Gaussian 82(TM) system (copyright 1983,
 Carnegie Mellon University). Gaussian is a federally registered
 trademark of Gaussian, Inc.
  
 This software contains proprietary and confidential information,
 including trade secrets, belonging to Gaussian, Inc.
  
 This software is provided under written license and may be
 used, copied, transmitted, or stored only in accord with that
 written license.
  
 The following legend is applicable only to US Government
 contracts under FAR:
  
                    RESTRICTED RIGHTS LEGEND
  
 Use, reproduction and disclosure by the US Government is
 subject to restrictions as set forth in subparagraphs (a)
 and (c) of the Commercial Computer Software - Restricted
 Rights clause in FAR 52.227-19.
  
 Gaussian, Inc.
 340 Quinnipiac St., Bldg. 40, Wallingford CT 06492
  
  
 ---------------------------------------------------------------
 Warning -- This program may not be used in any manner that
 competes with the business of Gaussian, Inc. or will provide
 assistance to any competitor of Gaussian, Inc.  The licensee
 of this program is prohibited from giving any competitor of
 Gaussian, Inc. access to this program.  By using this program,
 the user acknowledges that Gaussian, Inc. is engaged in the
 business of creating and licensing software in the field of
 computational chemistry and represents and warrants to the
 licensee that it is not a competitor of Gaussian, Inc. and that
 it will not use this program in any manner prohibited above.
 ---------------------------------------------------------------
  

 Cite this work as:
 Gaussian 16, Revision C.01,
 M. J. Frisch, G. W. Trucks, H. B. Schlegel, G. E. Scuseria, 
 M. A. Robb, J. R. Cheeseman, G. Scalmani, V. Barone, 
 G. A. Petersson, H. Nakatsuji, X. Li, M. Caricato, A. V. Marenich, 
 J. Bloino, B. G. Janesko, R. Gomperts, B. Mennucci, H. P. Hratchian, 
 J. V. Ortiz, A. F. Izmaylov, J. L. Sonnenberg, D. Williams-Young, 
 F. Ding, F. Lipparini, F. Egidi, J. Goings, B. Peng, A. Petrone, 
 T. Henderson, D. Ranasinghe, V. G. Zakrzewski, J. Gao, N. Rega, 
 G. Zheng, W. Liang, M. Hada, M. Ehara, K. Toyota, R. Fukuda, 
 J. Hasegawa, M. Ishida, T. Nakajima, Y. Honda, O. Kitao, H. Nakai, 
 T. Vreven, K. Throssell, J. A. Montgomery, Jr., J. E. Peralta, 
 F. Ogliaro, M. J. Bearpark, J. J. Heyd, E. N. Brothers, K. N. Kudin, 
 V. N. Staroverov, T. A. Keith, R. Kobayashi, J. Normand, 
 K. Raghavachari, A. P. Rendell, J. C. Burant, S. S. Iyengar, 
 J. Tomasi, M. Cossi, J. M. Millam, M. Klene, C. Adamo, R. Cammi, 
 J. W. Ochterski, R. L. Martin, K. Morokuma, O. Farkas, 
 J. B. Foresman, and D. J. Fox, Gaussian, Inc., Wallingford CT, 2019.
 
 ******************************************
 Gaussian 16:  ES64L-G16RevC.01  3-Jul-2019
                15-Feb-2024 
 ******************************************
 %chk=IRC_PbiL_collapseTo_QbiL_Reverse.chk
 %mem=1600MB
 %nprocs=4
 Will use up to    4 processors via shared memory.
 ----------------------------------------------------------------------
 # irc=(reverse,calcfc,maxpoints=100,maxcycle=100) wb97xd/def2tzvpp geo
 m=connectivity
 ----------------------------------------------------------------------
 1/6=100,10=4,18=10,22=2,26=3,38=1,42=100,44=3,57=2,172=1/1,23;
 2/12=2,17=6,18=5,29=1,40=1/2;
 3/5=44,7=202,11=2,25=1,30=1,71=2,74=-58,140=1/1,2,3;
 4//1;
 5/5=2,38=5/2;
 8/6=4,10=90,11=11/1;
 11/6=1,8=1,9=11,15=111,16=1/1,2,10;
 10/6=1,13=1/2;
 6/7=2,8=2,9=2,10=2,28=1/1;
 7/10=1,25=1/1,2,3,16;
 1/6=100,10=4,18=10,22=2,26=3,42=100,44=3/23(2);
 2/29=1/2;
 99/5=20/99;
 2/29=1/2;
 3/5=44,7=202,11=2,25=1,30=1,71=2,74=-58,140=1/1,2,3;
 4/5=5,16=3,69=1/1;
 5/5=2,38=5/2;
 8/6=4,10=90,11=11/1;
 11/6=1,8=1,9=11,15=111,16=1/1,2,10;
 10/6=1,13=1/2;
 7/10=1,25=1/1,2,3,16;
 1/6=100,18=10,22=2,26=3,42=100,44=3/23(-8);
 2/29=1/2;
 6/7=2,8=2,9=2,10=2,19=2,28=1/1;
 99/5=20,9=1/99;
 -----------------------------
 IRC for PbiL collapse to QbiL
 -----------------------------
 Symbolic Z-matrix:
 Charge = -1 Multiplicity = 1
 Si                    0.37595  -0.23707   0.05587 
 O                     0.95575  -0.93741  -1.35198 
 H                     0.30822  -1.57352  -1.6493 
 O                     2.31462   0.98092  -0.00969 
 H                     2.84588   0.46763  -0.61697 
 O                    -0.43139   1.22416  -0.18382 
 O                     1.18215  -0.48205   1.41102 
 H                     2.0121    0.25291   0.9231 
 O                    -1.1056   -1.12665   0.14338 
 C                    -2.17341  -0.26206   0.37348 
 H                    -3.10573  -0.68267  -0.02338 
 H                    -2.31329  -0.09045   1.45193 
 C                    -1.81125   1.05555  -0.31979 
 H                    -2.0869    1.00515  -1.38468 
 H                    -2.33979   1.90722   0.1238 
 
 IRC-IRC-IRC-IRC-IRC-IRC-IRC-IRC-IRC-IRC-IRC-IRC-IRC-IRC-IRC-IRC-IRC-IRC
 ------------------------------------------------------------------------
 INPUT DATA FOR L123
 ------------------------------------------------------------------------
 GENERAL PARAMETERS:
 Rxn path following direction = Reverse
 Maximum points per path      = 100
 Step size                    =   0.100 bohr
 Integration scheme           = HPC                                 
    Redo corrector integration= Yes                                 
    DWI Weight Power          =  2
    DWI will use Hessian update vectors when possible.
    Max correction cycles     = 100
 Initial Hessian              = CalcFC
 Hessian evaluation           = All updating
 Hessian updating method      = Bofill                              
 ------------------------------------------------------------------------
 IRC-IRC-IRC-IRC-IRC-IRC-IRC-IRC-IRC-IRC-IRC-IRC-IRC-IRC-IRC-IRC-IRC-IRC
                          Input orientation:                          
 ---------------------------------------------------------------------
 Center     Atomic      Atomic             Coordinates (Angstroms)
 Number     Number       Type             X           Y           Z
 ---------------------------------------------------------------------
      1         14           0        0.375945   -0.237067    0.055865
      2          8           0        0.955749   -0.937408   -1.351984
      3          1           0        0.308222   -1.573520   -1.649303
      4          8           0        2.314618    0.980917   -0.009688
      5          1           0        2.845876    0.467634   -0.616968
      6          8           0       -0.431385    1.224156   -0.183820
      7          8           0        1.182147   -0.482054    1.411022
      8          1           0        2.012103    0.252906    0.923104
      9          8           0       -1.105597   -1.126646    0.143375
     10          6           0       -2.173411   -0.262062    0.373480
     11          1           0       -3.105729   -0.682673   -0.023380
     12          1           0       -2.313293   -0.090445    1.451928
     13          6           0       -1.811252    1.055552   -0.319790
     14          1           0       -2.086899    1.005150   -1.384680
     15          1           0       -2.339790    1.907221    0.123802
 ---------------------------------------------------------------------
                    Distance matrix (angstroms):
                    1          2          3          4          5
     1  Si   0.000000
     2  O    1.675914   0.000000
     3  H    2.167554   0.955159   0.000000
     4  O    2.290466   2.707075   3.638559   0.000000
     5  H    2.655159   2.467179   3.416389   0.956286   0.000000
     6  O    1.686536   2.821543   3.243709   2.762249   3.391221
     7  O    1.595754   2.809414   3.364615   2.332636   2.789739
     8  H    1.915513   2.776465   3.585571   1.221317   1.764400
     9  O    1.730311   2.553636   2.326430   4.020338   4.328278
    10  C    2.569187   3.636614   3.459780   4.672710   5.167851
    11  H    3.510968   4.280851   3.884880   5.669910   6.090743
    12  H    3.033561   4.389294   4.323134   4.970080   5.586484
    13  C    2.568231   3.562809   3.629297   4.138180   4.703488
    14  H    3.111892   3.610029   3.529330   4.611349   5.021013
    15  H    3.460896   4.596785   4.719261   4.747565   5.432521
                    6          7          8          9         10
     6  O    0.000000
     7  O    2.838690   0.000000
     8  H    2.852935   1.211221   0.000000
     9  O    2.467365   2.693734   3.497312   0.000000
    10  C    2.356710   3.519184   4.252741   1.393083   0.000000
    11  H    3.288442   4.525885   5.288038   2.055589   1.097100
    12  H    2.818763   3.517546   4.371109   2.060231   1.100940
    13  C    1.396763   3.784228   4.099643   2.339756   1.532282
    14  H    2.056880   4.551306   4.763775   2.800439   2.168971
    15  H    2.050175   4.446303   4.723835   3.275357   2.189934
                   11         12         13         14         15
    11  H    0.000000
    12  H    1.776295   0.000000
    13  C    2.187454   2.168949   0.000000
    14  H    2.395809   3.049250   1.101141   0.000000
    15  H    2.704788   2.399019   1.096114   1.775726   0.000000
 Symmetry turned off by external request.
 Stoichiometry    C2H7O5Si(1-)
 Framework group  C1[X(C2H7O5Si)]
 Deg. of freedom    39
 Full point group                 C1      NOp   1
 Rotational constants (GHZ):           2.9033227           1.4221106           1.3175015
 Standard basis: def2TZVPP (5D, 7F)
   357 basis functions,   545 primitive gaussians,   405 cartesian basis functions
    37 alpha electrons       37 beta electrons
       nuclear repulsion energy       536.6037835315 Hartrees.
 NAtoms=   15 NActive=   15 NUniq=   15 SFac= 1.00D+00 NAtFMM=   60 NAOKFM=F Big=F
 Integral buffers will be    131072 words long.
 Raffenetti 2 integral format.
 Two-electron integral symmetry is turned off.
 Nuclear repulsion after empirical dispersion term =      536.5974623545 Hartrees.
 One-electron integrals computed using PRISM.
   1 Symmetry operations used in ECPInt.
 ECPInt:  NShTT=    8911 NPrTT=   25186 LenC2=    8643 LenP2D=   19498.
 LDataN:  DoStor=T MaxTD1= 6 Len=  172
 NBasis=   357 RedAO= T EigKep=  3.14D-04  NBF=   357
 NBsUse=   357 1.00D-06 EigRej= -1.00D+00 NBFU=   357
 ExpMin= 7.01D-02 ExpMax= 4.48D+04 ExpMxC= 1.53D+03 IAcc=3 IRadAn=         5 AccDes= 0.00D+00
 Harris functional with IExCor= 4639 and IRadAn=       5 diagonalized for initial guess.
 HarFok:  IExCor= 4639 AccDes= 0.00D+00 IRadAn=         5 IDoV= 1 UseB2=F ITyADJ=14
 ICtDFT=  3500011 ScaDFX=  1.000000  1.000000  1.000000  1.000000
 FoFCou: FMM=F IPFlag=           0 FMFlag=      100000 FMFlg1=           0
         NFxFlg=           0 DoJE=T BraDBF=F KetDBF=T FulRan=T
         wScrn=  0.000000 ICntrl=       500 IOpCl=  0 I1Cent=   200000004 NGrid=           0
         NMat0=    1 NMatS0=      1 NMatT0=    0 NMatD0=    1 NMtDS0=    0 NMtDT0=    0
 Symmetry not used in FoFCou.
 Requested convergence on RMS density matrix=1.00D-08 within 128 cycles.
 Requested convergence on MAX density matrix=1.00D-06.
 Requested convergence on             energy=1.00D-06.
 No special actions if energy rises.
 Integral accuracy reduced to 1.0D-05 until final iterations.
 Initial convergence to 1.0D-05 achieved.  Increase integral accuracy.
 SCF Done:  E(RwB97XD) =  -746.315366226     A.U. after   14 cycles
            NFock= 14  Conv=0.77D-08     -V/T= 2.0033
 DoSCS=F DFT=T ScalE2(SS,OS)=  1.000000  1.000000
 Range of M.O.s used for correlation:     1   357
 NBasis=   357 NAE=    37 NBE=    37 NFC=     0 NFV=     0
 NROrb=    357 NOA=    37 NOB=    37 NVA=   320 NVB=   320

 **** Warning!!: The largest alpha MO coefficient is  0.13320350D+02

   1 Symmetry operations used in ECPInt.
 ECPInt:  NShTT=    8911 NPrTT=   25186 LenC2=    8643 LenP2D=   19498.
 LDataN:  DoStor=T MaxTD1= 7 Len=  274
 Symmetrizing basis deriv contribution to polar:
 IMax=3 JMax=2 DiffMx= 0.00D+00
 G2DrvN: will do    16 centers at a time, making    1 passes.
 Calling FoFCou, ICntrl=  3107 FMM=F I1Cent=   0 AccDes= 0.00D+00.
 End of G2Drv F.D. properties file   721 does not exist.
 End of G2Drv F.D. properties file   722 does not exist.
 End of G2Drv F.D. properties file   788 does not exist.
          IDoAtm=111111111111111
          Differentiating once with respect to nuclear coordinates.
 CalDSu exits because no D1Ps are significant.
          There are    48 degrees of freedom in the 1st order CPHF.  IDoFFX=6 NUNeed=     0.
     42 vectors produced by pass  0 Test12= 2.47D-14 2.08D-09 XBig12= 9.00D-02 4.27D-02.
 AX will form    42 AO Fock derivatives at one time.
     42 vectors produced by pass  1 Test12= 2.47D-14 2.08D-09 XBig12= 3.11D-02 2.74D-02.
     42 vectors produced by pass  2 Test12= 2.47D-14 2.08D-09 XBig12= 9.59D-04 3.97D-03.
     42 vectors produced by pass  3 Test12= 2.47D-14 2.08D-09 XBig12= 1.37D-05 5.31D-04.
     42 vectors produced by pass  4 Test12= 2.47D-14 2.08D-09 XBig12= 1.51D-07 5.05D-05.
     42 vectors produced by pass  5 Test12= 2.47D-14 2.08D-09 XBig12= 1.48D-09 4.27D-06.
     42 vectors produced by pass  6 Test12= 2.47D-14 2.08D-09 XBig12= 1.04D-11 4.01D-07.
     17 vectors produced by pass  7 Test12= 2.47D-14 2.08D-09 XBig12= 6.88D-14 2.91D-08.
      2 vectors produced by pass  8 Test12= 2.47D-14 2.08D-09 XBig12= 5.79D-16 2.27D-09.
 InvSVY:  IOpt=1 It=  1 EMax= 2.44D-15
 Solved reduced A of dimension   313 with    42 vectors.
 End of Minotr F.D. properties file   721 does not exist.
 End of Minotr F.D. properties file   722 does not exist.
 End of Minotr F.D. properties file   788 does not exist.

 **********************************************************************

            Population analysis using the SCF Density.

 **********************************************************************

 Alpha  occ. eigenvalues --  -66.11875 -19.07330 -19.07226 -19.06842 -19.01671
 Alpha  occ. eigenvalues --  -18.99894 -10.18733 -10.18634  -5.23351  -3.58047
 Alpha  occ. eigenvalues --   -3.57857  -3.57629  -0.98194  -0.92976  -0.91813
 Alpha  occ. eigenvalues --   -0.88152  -0.81947  -0.67517  -0.55611  -0.46045
 Alpha  occ. eigenvalues --   -0.43899  -0.42524  -0.40958  -0.39230  -0.35857
 Alpha  occ. eigenvalues --   -0.34799  -0.29088  -0.28728  -0.27783  -0.25682
 Alpha  occ. eigenvalues --   -0.24343  -0.23437  -0.21886  -0.19833  -0.18526
 Alpha  occ. eigenvalues --   -0.17548  -0.15074
 Alpha virt. eigenvalues --    0.24445   0.26070   0.28008   0.29169   0.30950
 Alpha virt. eigenvalues --    0.31591   0.33721   0.36038   0.36655   0.38889
 Alpha virt. eigenvalues --    0.40226   0.41344   0.43785   0.44139   0.45637
 Alpha virt. eigenvalues --    0.46079   0.48010   0.51094   0.52544   0.54121
 Alpha virt. eigenvalues --    0.54965   0.56888   0.58269   0.59897   0.60383
 Alpha virt. eigenvalues --    0.60815   0.62448   0.63483   0.63743   0.64561
 Alpha virt. eigenvalues --    0.65586   0.67203   0.68747   0.69091   0.69790
 Alpha virt. eigenvalues --    0.71404   0.72709   0.75528   0.75863   0.76980
 Alpha virt. eigenvalues --    0.79937   0.81097   0.81888   0.83059   0.83854
 Alpha virt. eigenvalues --    0.87475   0.88176   0.90977   0.93038   0.93261
 Alpha virt. eigenvalues --    0.95920   0.97356   0.98476   1.00076   1.00682
 Alpha virt. eigenvalues --    1.01953   1.03025   1.05023   1.06282   1.07531
 Alpha virt. eigenvalues --    1.10269   1.12111   1.14258   1.16080   1.17739
 Alpha virt. eigenvalues --    1.20793   1.21201   1.22647   1.25825   1.26021
 Alpha virt. eigenvalues --    1.26642   1.28324   1.31320   1.33011   1.33328
 Alpha virt. eigenvalues --    1.36635   1.37951   1.39436   1.40211   1.41439
 Alpha virt. eigenvalues --    1.42920   1.43806   1.46471   1.47876   1.48657
 Alpha virt. eigenvalues --    1.52417   1.53836   1.56252   1.58138   1.58997
 Alpha virt. eigenvalues --    1.60908   1.62527   1.63434   1.66944   1.69965
 Alpha virt. eigenvalues --    1.72885   1.74670   1.76833   1.78292   1.78775
 Alpha virt. eigenvalues --    1.84613   1.85130   1.86937   1.93268   1.97171
 Alpha virt. eigenvalues --    1.99856   2.01561   2.02715   2.07112   2.09470
 Alpha virt. eigenvalues --    2.11237   2.11779   2.16097   2.17160   2.19667
 Alpha virt. eigenvalues --    2.21660   2.22499   2.24618   2.26931   2.30087
 Alpha virt. eigenvalues --    2.30270   2.33729   2.35797   2.37698   2.39746
 Alpha virt. eigenvalues --    2.42419   2.45950   2.47951   2.49602   2.52323
 Alpha virt. eigenvalues --    2.55405   2.56578   2.61551   2.63415   2.63608
 Alpha virt. eigenvalues --    2.65728   2.73681   2.78673   2.80996   2.83024
 Alpha virt. eigenvalues --    2.84583   2.86780   2.96019   2.97766   2.99659
 Alpha virt. eigenvalues --    3.01338   3.03363   3.05327   3.07433   3.08911
 Alpha virt. eigenvalues --    3.13859   3.17711   3.18757   3.19196   3.21001
 Alpha virt. eigenvalues --    3.21983   3.26130   3.28084   3.29317   3.32612
 Alpha virt. eigenvalues --    3.34546   3.35264   3.37293   3.39804   3.41536
 Alpha virt. eigenvalues --    3.42839   3.43972   3.46323   3.49492   3.52937
 Alpha virt. eigenvalues --    3.54098   3.55114   3.57924   3.60570   3.62468
 Alpha virt. eigenvalues --    3.63253   3.63955   3.65724   3.67379   3.69485
 Alpha virt. eigenvalues --    3.73172   3.75445   3.77680   3.79783   3.82083
 Alpha virt. eigenvalues --    3.84788   3.86119   3.87231   3.90928   3.92651
 Alpha virt. eigenvalues --    3.94230   3.95654   3.97697   4.02522   4.03364
 Alpha virt. eigenvalues --    4.05386   4.07599   4.09245   4.13319   4.16671
 Alpha virt. eigenvalues --    4.17823   4.20424   4.21051   4.24849   4.25866
 Alpha virt. eigenvalues --    4.28575   4.31029   4.32873   4.34969   4.36445
 Alpha virt. eigenvalues --    4.38023   4.40581   4.42702   4.45204   4.47380
 Alpha virt. eigenvalues --    4.48562   4.52724   4.55752   4.59704   4.61949
 Alpha virt. eigenvalues --    4.72659   4.75430   4.78658   4.80301   4.84124
 Alpha virt. eigenvalues --    4.86817   4.89044   4.94261   4.95405   4.98484
 Alpha virt. eigenvalues --    5.00761   5.04975   5.08755   5.09699   5.12921
 Alpha virt. eigenvalues --    5.17801   5.18607   5.21106   5.22054   5.25551
 Alpha virt. eigenvalues --    5.33519   5.34061   5.37005   5.37505   5.47374
 Alpha virt. eigenvalues --    5.49330   5.50977   5.54333   5.54632   5.56298
 Alpha virt. eigenvalues --    5.63290   5.65898   5.68006   5.69318   5.70120
 Alpha virt. eigenvalues --    5.71778   5.74742   5.76593   5.78007   5.78944
 Alpha virt. eigenvalues --    5.83818   5.86001   5.86872   5.91688   5.94008
 Alpha virt. eigenvalues --    5.99301   6.05354   6.16093   6.17815   6.21303
 Alpha virt. eigenvalues --    6.26757   6.30323   6.35163   6.36542   6.39367
 Alpha virt. eigenvalues --    6.46107   6.70449   6.74095   6.79310   6.81574
 Alpha virt. eigenvalues --    6.84672   6.86305   6.87552   6.89149   6.90374
 Alpha virt. eigenvalues --    6.91524   6.92085   6.94156   6.96169   6.97967
 Alpha virt. eigenvalues --    6.98652   7.02723   7.03301   7.07607   7.11686
 Alpha virt. eigenvalues --    7.14905   7.17873   7.22939   7.24627   7.31392
 Alpha virt. eigenvalues --    7.37523   7.38743   7.43158   7.52763   7.54859
 Alpha virt. eigenvalues --    7.56998   7.63750   7.71703   7.77262   7.92830
 Alpha virt. eigenvalues --    7.93679   8.04000  12.67396  23.49471  23.62960
 Alpha virt. eigenvalues --   44.02954  44.10482  44.16659  44.35026  44.41974
          Condensed to atoms (all electrons):
               1          2          3          4          5          6
     1  Si  11.516946   0.405184  -0.027858   0.159253  -0.016979   0.370404
     2  O    0.405184   7.845382   0.314661  -0.028055   0.004616  -0.023149
     3  H   -0.027858   0.314661   0.552848   0.004085  -0.000729   0.000080
     4  O    0.159253  -0.028055   0.004085   8.171908   0.292082  -0.022417
     5  H   -0.016979   0.004616  -0.000729   0.292082   0.585840   0.001120
     6  O    0.370404  -0.023149   0.000080  -0.022417   0.001120   7.939198
     7  O    0.564026  -0.027273  -0.001007  -0.184947   0.013785  -0.024471
     8  H   -0.050868   0.001864  -0.000976   0.196513  -0.016217   0.003392
     9  O    0.368804  -0.045663   0.011701   0.000916   0.000036  -0.024128
    10  C   -0.032943  -0.001942   0.001308   0.000602  -0.000114  -0.073946
    11  H   -0.000736   0.000021  -0.000587   0.000005  -0.000001   0.005135
    12  H   -0.003539  -0.000518   0.000463   0.000116  -0.000000   0.005941
    13  C   -0.054056  -0.002150  -0.001889  -0.000612  -0.000068   0.334760
    14  H   -0.008809   0.001453   0.001265   0.000171   0.000011  -0.056817
    15  H    0.003335  -0.000306  -0.000046  -0.000033  -0.000008  -0.043249
               7          8          9         10         11         12
     1  Si   0.564026  -0.050868   0.368804  -0.032943  -0.000736  -0.003539
     2  O   -0.027273   0.001864  -0.045663  -0.001942   0.000021  -0.000518
     3  H   -0.001007  -0.000976   0.011701   0.001308  -0.000587   0.000463
     4  O   -0.184947   0.196513   0.000916   0.000602   0.000005   0.000116
     5  H    0.013785  -0.016217   0.000036  -0.000114  -0.000001  -0.000000
     6  O   -0.024471   0.003392  -0.024128  -0.073946   0.005135   0.005941
     7  O    8.137459   0.194671  -0.025204   0.001487  -0.000345   0.001424
     8  H    0.194671   0.403473   0.000575  -0.000932  -0.000018  -0.000034
     9  O   -0.025204   0.000575   8.074251   0.329353  -0.046068  -0.047449
    10  C    0.001487  -0.000932   0.329353   4.701359   0.365757   0.413312
    11  H   -0.000345  -0.000018  -0.046068   0.365757   0.759580  -0.077221
    12  H    0.001424  -0.000034  -0.047449   0.413312  -0.077221   0.740746
    13  C   -0.006078   0.000970  -0.092497   0.299093  -0.013068  -0.062914
    14  H   -0.000263  -0.000072   0.010897  -0.057075  -0.017927   0.016878
    15  H   -0.000017   0.000060   0.007031  -0.016654   0.008902  -0.012930
              13         14         15
     1  Si  -0.054056  -0.008809   0.003335
     2  O   -0.002150   0.001453  -0.000306
     3  H   -0.001889   0.001265  -0.000046
     4  O   -0.000612   0.000171  -0.000033
     5  H   -0.000068   0.000011  -0.000008
     6  O    0.334760  -0.056817  -0.043249
     7  O   -0.006078  -0.000263  -0.000017
     8  H    0.000970  -0.000072   0.000060
     9  O   -0.092497   0.010897   0.007031
    10  C    0.299093  -0.057075  -0.016654
    11  H   -0.013068  -0.017927   0.008902
    12  H   -0.062914   0.016878  -0.012930
    13  C    4.741075   0.406669   0.370565
    14  H    0.406669   0.761164  -0.073754
    15  H    0.370565  -0.073754   0.734521
 Mulliken charges:
               1
     1  Si   0.807835
     2  O   -0.444125
     3  H    0.146680
     4  O   -0.589588
     5  H    0.136627
     6  O   -0.391854
     7  O   -0.643246
     8  H    0.267599
     9  O   -0.522555
    10  C    0.071334
    11  H    0.016571
    12  H    0.025728
    13  C    0.080199
    14  H    0.016210
    15  H    0.022582
 Sum of Mulliken charges =  -1.00000
 Mulliken charges with hydrogens summed into heavy atoms:
               1
     1  Si   0.807835
     2  O   -0.297445
     4  O   -0.452960
     6  O   -0.391854
     7  O   -0.375647
     9  O   -0.522555
    10  C    0.113633
    13  C    0.118991
 APT charges:
               1
     1  Si   0.367460
     2  O   -0.598711
     3  H    0.422710
     4  O   -0.732400
     5  H    0.363835
     6  O   -0.374130
     7  O   -0.503048
     8  H    0.226348
     9  O   -0.456946
    10  C   -0.627934
    11  H    0.440961
    12  H    0.313999
    13  C   -0.573066
    14  H    0.319252
    15  H    0.411670
 Sum of APT charges =  -1.00000
 APT charges with hydrogens summed into heavy atoms:
               1
     1  Si   0.367460
     2  O   -0.176001
     4  O   -0.368565
     6  O   -0.374130
     7  O   -0.276700
     9  O   -0.456946
    10  C    0.127027
    13  C    0.157855
 Electronic spatial extent (au):  <R**2>=           1052.8554
 Charge=             -1.0000 electrons
 Dipole moment (field-independent basis, Debye):
    X=             -4.9619    Y=             -0.8468    Z=             -2.4552  Tot=              5.6005
 Quadrupole moment (field-independent basis, Debye-Ang):
   XX=            -65.4085   YY=            -64.9587   ZZ=            -62.5871
   XY=             -4.7383   XZ=             -2.4873   YZ=              3.7796
 Traceless Quadrupole moment (field-independent basis, Debye-Ang):
   XX=             -1.0904   YY=             -0.6406   ZZ=              1.7310
   XY=             -4.7383   XZ=             -2.4873   YZ=              3.7796
 Octapole moment (field-independent basis, Debye-Ang**2):
  XXX=             -2.4313  YYY=            -10.1164  ZZZ=            -11.1374  XYY=             -4.9388
  XXY=             -7.1605  XXZ=             -6.4735  XZZ=             -6.7548  YZZ=              1.7651
  YYZ=             -4.8620  XYZ=             -0.8785
 Hexadecapole moment (field-independent basis, Debye-Ang**3):
 XXXX=           -833.0050 YYYY=           -313.9404 ZZZZ=           -257.4296 XXXY=            -25.8602
 XXXZ=            -18.4559 YYYX=            -12.1807 YYYZ=             15.7401 ZZZX=             -6.3534
 ZZZY=             14.1449 XXYY=           -216.7800 XXZZ=           -183.2093 YYZZ=            -87.0991
 XXYZ=              0.6082 YYXZ=             -0.5048 ZZXY=             11.0191
 N-N= 5.365974623545D+02 E-N=-2.854648053994D+03  KE= 7.438440447407D+02
  Exact polarizability:       0.000       0.000       0.000       0.000       0.000       0.000
 Approx polarizability:      75.980       0.972      68.522      -1.311       0.391      69.144
   1 Symmetry operations used in ECPInt.
 ECPInt:  NShTT=    8911 NPrTT=   25186 LenC2=    8643 LenP2D=   19498.
 LDataN:  DoStor=T MaxTD1= 8 Len=  415
 Calling FoFJK, ICntrl=    100127 FMM=F ISym2X=0 I1Cent= 0 IOpClX= 0 NMat=1 NMatS=1 NMatT=0.
 -------------------------------------------------------------------
 Center     Atomic                   Forces (Hartrees/Bohr)
 Number     Number              X              Y              Z
 -------------------------------------------------------------------
      1       14          -0.000001577    0.000000758    0.000003191
      2        8           0.000003749    0.000002628   -0.000002276
      3        1           0.000003587    0.000002884   -0.000001557
      4        8          -0.000000938    0.000007397    0.000001292
      5        1           0.000000952    0.000007577    0.000001647
      6        8          -0.000001510    0.000000785    0.000000411
      7        8          -0.000000734    0.000002144   -0.000001215
      8        1          -0.000001268    0.000002836    0.000003286
      9        8           0.000003074   -0.000002260   -0.000001690
     10        6           0.000000107   -0.000004949   -0.000001817
     11        1           0.000002107   -0.000005603   -0.000002009
     12        1          -0.000000192   -0.000005598   -0.000000755
     13        6          -0.000001886   -0.000002006    0.000000354
     14        1          -0.000001392   -0.000002063    0.000000475
     15        1          -0.000004080   -0.000004529    0.000000663
 -------------------------------------------------------------------
 Cartesian Forces:  Max     0.000007577 RMS     0.000002907
 IRC-IRC-IRC-IRC-IRC-IRC-IRC-IRC-IRC-IRC-IRC-IRC-IRC-IRC-IRC-IRC-IRC-IRC
          ******** Start new reaction path calculation ********
 Supplied step size of   0.1000 bohr.
    Integration on MW PES will use step size of   0.1059 sqrt(amu)*bohr.
 Point Number:   0          Path Number:   1
 Calculating another point on the path.
 IRC-IRC-IRC-IRC-IRC-IRC-IRC-IRC-IRC-IRC-IRC-IRC-IRC-IRC-IRC-IRC-IRC-IRC
                          Input orientation:                          
 ---------------------------------------------------------------------
 Center     Atomic      Atomic             Coordinates (Angstroms)
 Number     Number       Type             X           Y           Z
 ---------------------------------------------------------------------
      1         14           0        0.343665   -0.226419    0.045563
      2          8           0        0.922230   -0.928883   -1.360233
      3          1           0        0.274886   -1.565108   -1.657992
      4          8           0        2.279691    0.989550   -0.019036
      5          1           0        2.812738    0.479722   -0.627659
      6          8           0       -0.464879    1.233219   -0.191885
      7          8           0        1.150233   -0.472673    1.403819
      8          1           0        1.956755    0.230138    0.950256
      9          8           0       -1.138105   -1.117367    0.135551
     10          6           0       -2.206641   -0.252884    0.365157
     11          1           0       -3.138479   -0.674125   -0.031877
     12          1           0       -2.346881   -0.081319    1.443509
     13          6           0       -1.844578    1.064659   -0.328121
     14          1           0       -2.120002    1.014278   -1.393006
     15          1           0       -2.373228    1.916229    0.115423
 ---------------------------------------------------------------------
                    Distance matrix (angstroms):
                    1          2          3          4          5
     1  Si   0.000000
     2  O    1.674651   0.000000
     3  H    2.167699   0.955247   0.000000
     4  O    2.287127   2.705901   3.637541   0.000000
     5  H    2.654841   2.468776   3.418130   0.956287   0.000000
     6  O    1.685428   2.822020   3.244589   2.760782   3.391228
     7  O    1.598766   2.810712   3.366651   2.332014   2.792469
     8  H    1.904986   2.784229   3.585324   1.272997   1.812406
     9  O    1.731337   2.553013   2.326760   4.018001   4.329243
    10  C    2.570390   3.636452   3.460208   4.671020   5.168807
    11  H    3.511661   4.280045   3.884476   5.667852   6.091248
    12  H    3.035514   4.389353   4.323725   4.969001   5.588038
    13  C    2.568060   3.562961   3.629926   4.136517   4.703453
    14  H    3.111023   3.610003   3.529722   4.609307   5.020302
    15  H    3.460828   4.596985   4.719874   4.746206   5.432308
                    6          7          8          9         10
     6  O    0.000000
     7  O    2.839881   0.000000
     8  H    2.859190   1.161955   0.000000
     9  O    2.466922   2.694555   3.472415   0.000000
    10  C    2.356381   3.520757   4.231963   1.393492   0.000000
    11  H    3.288115   4.527124   5.267227   2.055722   1.096997
    12  H    2.818591   3.519168   4.342992   2.060410   1.100883
    13  C    1.396618   3.785750   4.096438   2.339943   1.532202
    14  H    2.056711   4.552768   4.767148   2.800807   2.168950
    15  H    2.050058   4.447650   4.721080   3.275460   2.189788
                   11         12         13         14         15
    11  H    0.000000
    12  H    1.776178   0.000000
    13  C    2.187535   2.168928   0.000000
    14  H    2.395970   3.049201   1.101080   0.000000
    15  H    2.705040   2.398897   1.096072   1.775668   0.000000
 Symmetry turned off by external request.
 Stoichiometry    C2H7O5Si(1-)
 Framework group  C1[X(C2H7O5Si)]
 Deg. of freedom    39
 Full point group                 C1      NOp   1
 Rotational constants (GHZ):           2.9020346           1.4223667           1.3182222
 Standard basis: def2TZVPP (5D, 7F)
   357 basis functions,   545 primitive gaussians,   405 cartesian basis functions
    37 alpha electrons       37 beta electrons
       nuclear repulsion energy       536.6226124322 Hartrees.
 NAtoms=   15 NActive=   15 NUniq=   15 SFac= 1.00D+00 NAtFMM=   60 NAOKFM=F Big=F
 Integral buffers will be    131072 words long.
 Raffenetti 2 integral format.
 Two-electron integral symmetry is turned off.
 Nuclear repulsion after empirical dispersion term =      536.6162795753 Hartrees.
 One-electron integrals computed using PRISM.
   1 Symmetry operations used in ECPInt.
 ECPInt:  NShTT=    8911 NPrTT=   25186 LenC2=    8643 LenP2D=   19498.
 LDataN:  DoStor=T MaxTD1= 6 Len=  172
 NBasis=   357 RedAO= T EigKep=  3.15D-04  NBF=   357
 NBsUse=   357 1.00D-06 EigRej= -1.00D+00 NBFU=   357
 Initial guess from the checkpoint file:  "IRC_PbiL_collapseTo_QbiL_Reverse.chk"
 B after Tr=    -0.063082    0.016862   -0.015416
         Rot=    1.000000   -0.000101    0.000107    0.000055 Ang=  -0.02 deg.
 ExpMin= 7.01D-02 ExpMax= 4.48D+04 ExpMxC= 1.53D+03 IAcc=3 IRadAn=         5 AccDes= 0.00D+00
 Harris functional with IExCor= 4639 and IRadAn=       5 diagonalized for initial guess.
 HarFok:  IExCor= 4639 AccDes= 0.00D+00 IRadAn=         5 IDoV= 1 UseB2=F ITyADJ=14
 ICtDFT=  3500011 ScaDFX=  1.000000  1.000000  1.000000  1.000000
 FoFCou: FMM=F IPFlag=           0 FMFlag=      100000 FMFlg1=           0
         NFxFlg=           0 DoJE=T BraDBF=F KetDBF=T FulRan=T
         wScrn=  0.000000 ICntrl=       500 IOpCl=  0 I1Cent=   200000004 NGrid=           0
         NMat0=    1 NMatS0=      1 NMatT0=    0 NMatD0=    1 NMtDS0=    0 NMtDT0=    0
 Symmetry not used in FoFCou.
 Requested convergence on RMS density matrix=1.00D-08 within 128 cycles.
 Requested convergence on MAX density matrix=1.00D-06.
 Requested convergence on             energy=1.00D-06.
 No special actions if energy rises.
 Integral accuracy reduced to 1.0D-05 until final iterations.
 Initial convergence to 1.0D-05 achieved.  Increase integral accuracy.
 SCF Done:  E(RwB97XD) =  -746.315616027     A.U. after   11 cycles
            NFock= 11  Conv=0.95D-08     -V/T= 2.0033
 DoSCS=F DFT=T ScalE2(SS,OS)=  1.000000  1.000000
 Range of M.O.s used for correlation:     1   357
 NBasis=   357 NAE=    37 NBE=    37 NFC=     0 NFV=     0
 NROrb=    357 NOA=    37 NOB=    37 NVA=   320 NVB=   320

 **** Warning!!: The largest alpha MO coefficient is  0.13631204D+02

 Symmetrizing basis deriv contribution to polar:
 IMax=3 JMax=2 DiffMx= 0.00D+00
   1 Symmetry operations used in ECPInt.
 ECPInt:  NShTT=    8911 NPrTT=   25186 LenC2=    8643 LenP2D=   19498.
 LDataN:  DoStor=T MaxTD1= 7 Len=  274
 Calling FoFJK, ICntrl=      2127 FMM=F ISym2X=0 I1Cent= 0 IOpClX= 0 NMat=1 NMatS=1 NMatT=0.
 -------------------------------------------------------------------
 Center     Atomic                   Forces (Hartrees/Bohr)
 Number     Number              X              Y              Z
 -------------------------------------------------------------------
      1       14           0.002362296    0.003702371   -0.004624957
      2        8          -0.000392907   -0.000845189    0.000157148
      3        1          -0.000006896   -0.000062836   -0.000032964
      4        8          -0.002138639   -0.000258588   -0.002002845
      5        1          -0.000013572    0.000301952   -0.000231311
      6        8          -0.000381782   -0.000076243    0.000430405
      7        8           0.000923833   -0.000412315    0.002085494
      8        1          -0.001250771   -0.002489609    0.003349833
      9        8           0.000997131    0.000203694    0.000768192
     10        6           0.000004771    0.000041852    0.000059045
     11        1           0.000043202   -0.000056517   -0.000012112
     12        1          -0.000030814   -0.000005747   -0.000002968
     13        6          -0.000100842   -0.000025666    0.000051758
     14        1           0.000008676   -0.000002813    0.000004165
     15        1          -0.000023685   -0.000014346    0.000001117
 -------------------------------------------------------------------
 Cartesian Forces:  Max     0.004624957 RMS     0.001305704
 IRC-IRC-IRC-IRC-IRC-IRC-IRC-IRC-IRC-IRC-IRC-IRC-IRC-IRC-IRC-IRC-IRC-IRC
 Pt  1 Step number   1 out of a maximum of 100
 Modified Bulirsch-Stoer Extrapolation Cycles:
    EPS =    0.000010000000000
      PEZero:  N= 2 I= 1 D=  2.76D-04 Err=  5.49D-04
      PEZero:  N= 3 I= 2 D=  2.76D-04 Err=  3.66D-04
      PEZero:  N= 3 I= 1 D=  5.51D-04 Err=  1.77D-07
 Maximum DWI energy   std dev =  0.000002209 at pt     1
 Maximum DWI gradient std dev =  0.088877040 at pt     1
 CORRECTOR INTEGRATION CONVERGENCE:
   Recorrection delta-x convergence threshold:    0.010000
   Delta-x Convergence Met
 Point Number:   1          Path Number:   1
   CHANGE IN THE REACTION COORDINATE =    0.10578
   NET REACTION COORDINATE UP TO THIS POINT =    0.10578
  # OF POINTS ALONG THE PATH =   1
  # OF STEPS =   1

 Calculating another point on the path.
 IRC-IRC-IRC-IRC-IRC-IRC-IRC-IRC-IRC-IRC-IRC-IRC-IRC-IRC-IRC-IRC-IRC-IRC
                          Input orientation:                          
 ---------------------------------------------------------------------
 Center     Atomic      Atomic             Coordinates (Angstroms)
 Number     Number       Type             X           Y           Z
 ---------------------------------------------------------------------
      1         14           0        0.344794   -0.224774    0.043600
      2          8           0        0.921938   -0.929533   -1.360131
      3          1           0        0.274773   -1.565851   -1.658344
      4          8           0        2.278064    0.989363   -0.020516
      5          1           0        2.812752    0.483195   -0.630722
      6          8           0       -0.465171    1.233178   -0.191563
      7          8           0        1.150932   -0.473023    1.405490
      8          1           0        1.938220    0.199323    0.988135
      9          8           0       -1.137334   -1.117197    0.136135
     10          6           0       -2.206621   -0.252857    0.365218
     11          1           0       -3.137949   -0.674794   -0.032024
     12          1           0       -2.347261   -0.081377    1.443477
     13          6           0       -1.844688    1.064627   -0.328067
     14          1           0       -2.119896    1.014243   -1.392950
     15          1           0       -2.373508    1.916065    0.115432
 ---------------------------------------------------------------------
                    Distance matrix (angstroms):
                    1          2          3          4          5
     1  Si   0.000000
     2  O    1.673392   0.000000
     3  H    2.167949   0.955330   0.000000
     4  O    2.283806   2.704774   3.636588   0.000000
     5  H    2.654571   2.470429   3.419933   0.956268   0.000000
     6  O    1.684331   2.822577   3.245540   2.759355   3.391182
     7  O    1.601946   2.812383   3.368829   2.332915   2.796812
     8  H    1.900266   2.796694   3.589812   1.325532   1.861743
     9  O    1.732537   2.552378   2.327121   4.015853   4.330416
    10  C    2.571759   3.636290   3.460646   4.669507   5.169892
    11  H    3.512512   4.279188   3.884015   5.665929   6.091817
    12  H    3.037661   4.389448   4.324352   4.968238   5.589882
    13  C    2.567980   3.563152   3.630588   4.134892   4.703341
    14  H    3.110231   3.610000   3.530121   4.607195   5.019365
    15  H    3.460855   4.597247   4.720531   4.744932   5.432049
                    6          7          8          9         10
     6  O    0.000000
     7  O    2.841389   0.000000
     8  H    2.869988   1.116269   0.000000
     9  O    2.466466   2.694880   3.452268   0.000000
    10  C    2.356046   3.521903   4.215709   1.393894   0.000000
    11  H    3.287788   4.527876   5.250933   2.055836   1.096907
    12  H    2.818453   3.520254   4.318735   2.060580   1.100831
    13  C    1.396463   3.787258   4.097746   2.340126   1.532123
    14  H    2.056545   4.554288   4.775140   2.801172   2.168920
    15  H    2.049959   4.449008   4.722268   3.275551   2.189626
                   11         12         13         14         15
    11  H    0.000000
    12  H    1.776073   0.000000
    13  C    2.187636   2.168934   0.000000
    14  H    2.396120   3.049163   1.101024   0.000000
    15  H    2.705302   2.398785   1.096033   1.775617   0.000000
 Symmetry turned off by external request.
 Stoichiometry    C2H7O5Si(1-)
 Framework group  C1[X(C2H7O5Si)]
 Deg. of freedom    39
 Full point group                 C1      NOp   1
 Rotational constants (GHZ):           2.8998488           1.4225060           1.3188646
 Standard basis: def2TZVPP (5D, 7F)
   357 basis functions,   545 primitive gaussians,   405 cartesian basis functions
    37 alpha electrons       37 beta electrons
       nuclear repulsion energy       536.6104128205 Hartrees.
 NAtoms=   15 NActive=   15 NUniq=   15 SFac= 1.00D+00 NAtFMM=   60 NAOKFM=F Big=F
 Integral buffers will be    131072 words long.
 Raffenetti 2 integral format.
 Two-electron integral symmetry is turned off.
 Nuclear repulsion after empirical dispersion term =      536.6040679900 Hartrees.
 One-electron integrals computed using PRISM.
   1 Symmetry operations used in ECPInt.
 ECPInt:  NShTT=    8911 NPrTT=   25186 LenC2=    8643 LenP2D=   19495.
 LDataN:  DoStor=T MaxTD1= 6 Len=  172
 NBasis=   357 RedAO= T EigKep=  3.15D-04  NBF=   357
 NBsUse=   357 1.00D-06 EigRej= -1.00D+00 NBFU=   357
 Initial guess from the checkpoint file:  "IRC_PbiL_collapseTo_QbiL_Reverse.chk"
 B after Tr=    -0.000247   -0.000385    0.000454
         Rot=    1.000000   -0.000101    0.000107    0.000050 Ang=  -0.02 deg.
 ExpMin= 7.01D-02 ExpMax= 4.48D+04 ExpMxC= 1.53D+03 IAcc=3 IRadAn=         5 AccDes= 0.00D+00
 Harris functional with IExCor= 4639 and IRadAn=       5 diagonalized for initial guess.
 HarFok:  IExCor= 4639 AccDes= 0.00D+00 IRadAn=         5 IDoV= 1 UseB2=F ITyADJ=14
 ICtDFT=  3500011 ScaDFX=  1.000000  1.000000  1.000000  1.000000
 FoFCou: FMM=F IPFlag=           0 FMFlag=      100000 FMFlg1=           0
         NFxFlg=           0 DoJE=T BraDBF=F KetDBF=T FulRan=T
         wScrn=  0.000000 ICntrl=       500 IOpCl=  0 I1Cent=   200000004 NGrid=           0
         NMat0=    1 NMatS0=      1 NMatT0=    0 NMatD0=    1 NMtDS0=    0 NMtDT0=    0
 Symmetry not used in FoFCou.
 Requested convergence on RMS density matrix=1.00D-08 within 128 cycles.
 Requested convergence on MAX density matrix=1.00D-06.
 Requested convergence on             energy=1.00D-06.
 No special actions if energy rises.
 Integral accuracy reduced to 1.0D-05 until final iterations.
 Initial convergence to 1.0D-05 achieved.  Increase integral accuracy.
 SCF Done:  E(RwB97XD) =  -746.316291576     A.U. after   12 cycles
            NFock= 12  Conv=0.26D-08     -V/T= 2.0033
 DoSCS=F DFT=T ScalE2(SS,OS)=  1.000000  1.000000
 Range of M.O.s used for correlation:     1   357
 NBasis=   357 NAE=    37 NBE=    37 NFC=     0 NFV=     0
 NROrb=    357 NOA=    37 NOB=    37 NVA=   320 NVB=   320

 **** Warning!!: The largest alpha MO coefficient is  0.13466720D+02

 Symmetrizing basis deriv contribution to polar:
 IMax=3 JMax=2 DiffMx= 0.00D+00
   1 Symmetry operations used in ECPInt.
 ECPInt:  NShTT=    8911 NPrTT=   25186 LenC2=    8643 LenP2D=   19495.
 LDataN:  DoStor=T MaxTD1= 7 Len=  274
 Calling FoFJK, ICntrl=      2127 FMM=F ISym2X=0 I1Cent= 0 IOpClX= 0 NMat=1 NMatS=1 NMatT=0.
 -------------------------------------------------------------------
 Center     Atomic                   Forces (Hartrees/Bohr)
 Number     Number              X              Y              Z
 -------------------------------------------------------------------
      1       14           0.005060959    0.007314549   -0.008706673
      2        8          -0.000741622   -0.001671984    0.000235763
      3        1          -0.000024143   -0.000125166   -0.000057488
      4        8          -0.004035066   -0.000219831   -0.004273028
      5        1          -0.000045900    0.000579328   -0.000500838
      6        8          -0.000764872   -0.000092913    0.000819863
      7        8           0.000120833   -0.002225928    0.004943835
      8        1          -0.001361587   -0.003875173    0.005859920
      9        8           0.001955371    0.000436539    0.001481246
     10        6           0.000042903    0.000053548    0.000110694
     11        1           0.000079245   -0.000098000   -0.000021713
     12        1          -0.000059776   -0.000000626   -0.000002643
     13        6          -0.000203176   -0.000053868    0.000103932
     14        1           0.000017622   -0.000002362    0.000006383
     15        1          -0.000040791   -0.000018114    0.000000748
 -------------------------------------------------------------------
 Cartesian Forces:  Max     0.008706673 RMS     0.002502038
 IRC-IRC-IRC-IRC-IRC-IRC-IRC-IRC-IRC-IRC-IRC-IRC-IRC-IRC-IRC-IRC-IRC-IRC
 Pt  2 Step number   1 out of a maximum of 100
 Modified Bulirsch-Stoer Extrapolation Cycles:
    EPS =    0.000010000000000
      PEZero:  N= 2 I= 1 D=  5.51D-04 Err=  3.58D-05
      PEZero:  N= 3 I= 2 D=  5.51D-04 Err=  2.37D-05
      PEZero:  N= 3 I= 1 D=  1.10D-03 Err=  2.16D-07
 Maximum DWI energy   std dev =  0.000007104 at pt    31
 Maximum DWI gradient std dev =  0.082360363 at pt    27
 CORRECTOR INTEGRATION CONVERGENCE:
   Recorrection delta-x convergence threshold:    0.010000
   Delta-x Convergence Met
 Point Number:   2          Path Number:   1
   CHANGE IN THE REACTION COORDINATE =    0.10566
   NET REACTION COORDINATE UP TO THIS POINT =    0.21144
  # OF POINTS ALONG THE PATH =   2
  # OF STEPS =   1

 Calculating another point on the path.
 IRC-IRC-IRC-IRC-IRC-IRC-IRC-IRC-IRC-IRC-IRC-IRC-IRC-IRC-IRC-IRC-IRC-IRC
                          Input orientation:                          
 ---------------------------------------------------------------------
 Center     Atomic      Atomic             Coordinates (Angstroms)
 Number     Number       Type             X           Y           Z
 ---------------------------------------------------------------------
      1         14           0        0.346322   -0.222762    0.041368
      2          8           0        0.921603   -0.930342   -1.360074
      3          1           0        0.274570   -1.566750   -1.658653
      4          8           0        2.276150    0.989269   -0.022503
      5          1           0        2.812489    0.487416   -0.634798
      6          8           0       -0.465540    1.233176   -0.191195
      7          8           0        1.150754   -0.474278    1.407971
      8          1           0        1.926135    0.171178    1.028107
      9          8           0       -1.136396   -1.116959    0.136833
     10          6           0       -2.206555   -0.252849    0.365293
     11          1           0       -3.137353   -0.675534   -0.032193
     12          1           0       -2.347700   -0.081370    1.443455
     13          6           0       -1.844828    1.064587   -0.328000
     14          1           0       -2.119779    1.014217   -1.392902
     15          1           0       -2.373816    1.915925    0.115426
 ---------------------------------------------------------------------
                    Distance matrix (angstroms):
                    1          2          3          4          5
     1  Si   0.000000
     2  O    1.672022   0.000000
     3  H    2.168299   0.955414   0.000000
     4  O    2.279767   2.703480   3.635456   0.000000
     5  H    2.653966   2.472147   3.421828   0.956254   0.000000
     6  O    1.683140   2.823340   3.246656   2.757682   3.390931
     7  O    1.605608   2.814707   3.371257   2.335539   2.803413
     8  H    1.903853   2.815287   3.600936   1.376795   1.910729
     9  O    1.734115   2.551650   2.327425   4.013360   4.331643
    10  C    2.573522   3.636106   3.461022   4.667751   5.170975
    11  H    3.513745   4.278238   3.883408   5.663716   6.092307
    12  H    3.040327   4.389632   4.325011   4.967422   5.591976
    13  C    2.568042   3.563434   3.631311   4.132973   4.702962
    14  H    3.109485   3.610041   3.530569   4.604651   5.017919
    15  H    3.461014   4.597621   4.721263   4.743406   5.431504
                    6          7          8          9         10
     6  O    0.000000
     7  O    2.843438   0.000000
     8  H    2.886979   1.078020   0.000000
     9  O    2.465925   2.694418   3.439879   0.000000
    10  C    2.355650   3.522462   4.206929   1.394317   0.000000
    11  H    3.287406   4.527962   5.242144   2.056029   1.096832
    12  H    2.818268   3.520627   4.301390   2.060816   1.100799
    13  C    1.396271   3.788828   4.105773   2.340319   1.532039
    14  H    2.056344   4.555974   4.789721   2.801614   2.168925
    15  H    2.049800   4.450432   4.729346   3.275676   2.189519
                   11         12         13         14         15
    11  H    0.000000
    12  H    1.775984   0.000000
    13  C    2.187726   2.168905   0.000000
    14  H    2.396298   3.049127   1.100977   0.000000
    15  H    2.705631   2.398651   1.096007   1.775574   0.000000
 Symmetry turned off by external request.
 Stoichiometry    C2H7O5Si(1-)
 Framework group  C1[X(C2H7O5Si)]
 Deg. of freedom    39
 Full point group                 C1      NOp   1
 Rotational constants (GHZ):           2.8965394           1.4225827           1.3195256
 Standard basis: def2TZVPP (5D, 7F)
   357 basis functions,   545 primitive gaussians,   405 cartesian basis functions
    37 alpha electrons       37 beta electrons
       nuclear repulsion energy       536.5495848553 Hartrees.
 NAtoms=   15 NActive=   15 NUniq=   15 SFac= 1.00D+00 NAtFMM=   60 NAOKFM=F Big=F
 Integral buffers will be    131072 words long.
 Raffenetti 2 integral format.
 Two-electron integral symmetry is turned off.
 Nuclear repulsion after empirical dispersion term =      536.5432293929 Hartrees.
 One-electron integrals computed using PRISM.
   1 Symmetry operations used in ECPInt.
 ECPInt:  NShTT=    8911 NPrTT=   25186 LenC2=    8643 LenP2D=   19498.
 LDataN:  DoStor=T MaxTD1= 6 Len=  172
 NBasis=   357 RedAO= T EigKep=  3.15D-04  NBF=   357
 NBsUse=   357 1.00D-06 EigRej= -1.00D+00 NBFU=   357
 Initial guess from the checkpoint file:  "IRC_PbiL_collapseTo_QbiL_Reverse.chk"
 B after Tr=    -0.000173   -0.000348    0.000475
         Rot=    1.000000   -0.000097    0.000103    0.000045 Ang=  -0.02 deg.
 ExpMin= 7.01D-02 ExpMax= 4.48D+04 ExpMxC= 1.53D+03 IAcc=3 IRadAn=         5 AccDes= 0.00D+00
 Harris functional with IExCor= 4639 and IRadAn=       5 diagonalized for initial guess.
 HarFok:  IExCor= 4639 AccDes= 0.00D+00 IRadAn=         5 IDoV= 1 UseB2=F ITyADJ=14
 ICtDFT=  3500011 ScaDFX=  1.000000  1.000000  1.000000  1.000000
 FoFCou: FMM=F IPFlag=           0 FMFlag=      100000 FMFlg1=           0
         NFxFlg=           0 DoJE=T BraDBF=F KetDBF=T FulRan=T
         wScrn=  0.000000 ICntrl=       500 IOpCl=  0 I1Cent=   200000004 NGrid=           0
         NMat0=    1 NMatS0=      1 NMatT0=    0 NMatD0=    1 NMtDS0=    0 NMtDT0=    0
 Symmetry not used in FoFCou.
 Requested convergence on RMS density matrix=1.00D-08 within 128 cycles.
 Requested convergence on MAX density matrix=1.00D-06.
 Requested convergence on             energy=1.00D-06.
 No special actions if energy rises.
 Integral accuracy reduced to 1.0D-05 until final iterations.
 Initial convergence to 1.0D-05 achieved.  Increase integral accuracy.
 SCF Done:  E(RwB97XD) =  -746.317199088     A.U. after   12 cycles
            NFock= 12  Conv=0.34D-08     -V/T= 2.0033
 DoSCS=F DFT=T ScalE2(SS,OS)=  1.000000  1.000000
 Range of M.O.s used for correlation:     1   357
 NBasis=   357 NAE=    37 NBE=    37 NFC=     0 NFV=     0
 NROrb=    357 NOA=    37 NOB=    37 NVA=   320 NVB=   320

 **** Warning!!: The largest alpha MO coefficient is  0.12960001D+02

 Symmetrizing basis deriv contribution to polar:
 IMax=3 JMax=2 DiffMx= 0.00D+00
   1 Symmetry operations used in ECPInt.
 ECPInt:  NShTT=    8911 NPrTT=   25186 LenC2=    8643 LenP2D=   19498.
 LDataN:  DoStor=T MaxTD1= 7 Len=  274
 Calling FoFJK, ICntrl=      2127 FMM=F ISym2X=0 I1Cent= 0 IOpClX= 0 NMat=1 NMatS=1 NMatT=0.
 -------------------------------------------------------------------
 Center     Atomic                   Forces (Hartrees/Bohr)
 Number     Number              X              Y              Z
 -------------------------------------------------------------------
      1       14           0.008151443    0.010434249   -0.011331594
      2        8          -0.000979952   -0.002429827    0.000123930
      3        1          -0.000038231   -0.000158587   -0.000048230
      4        8          -0.005819108   -0.000357408   -0.006044795
      5        1          -0.000108323    0.000794334   -0.000732873
      6        8          -0.001089662    0.000037121    0.001096009
      7        8          -0.002340633   -0.005178586    0.008095012
      8        1          -0.000417822   -0.003647522    0.006513676
      9        8           0.002790875    0.000748419    0.002054794
     10        6           0.000169661    0.000003372    0.000156510
     11        1           0.000107267   -0.000134235   -0.000034544
     12        1          -0.000079657    0.000000277   -0.000004100
     13        6          -0.000309465   -0.000083270    0.000149846
     14        1           0.000020785   -0.000004258    0.000006797
     15        1          -0.000057178   -0.000024079   -0.000000437
 -------------------------------------------------------------------
 Cartesian Forces:  Max     0.011331594 RMS     0.003500019
 IRC-IRC-IRC-IRC-IRC-IRC-IRC-IRC-IRC-IRC-IRC-IRC-IRC-IRC-IRC-IRC-IRC-IRC
 Pt  3 Step number   1 out of a maximum of 100
 Modified Bulirsch-Stoer Extrapolation Cycles:
    EPS =    0.000010000000000
      PEZero:  N= 2 I= 1 D=  5.51D-04 Err=  5.28D-05
      PEZero:  N= 3 I= 2 D=  5.51D-04 Err=  3.50D-05
      PEZero:  N= 3 I= 1 D=  1.10D-03 Err=  3.41D-07
 Maximum DWI energy   std dev =  0.000011029 at pt    37
 Maximum DWI gradient std dev =  0.084063787 at pt    28
 CORRECTOR INTEGRATION CONVERGENCE:
   Recorrection delta-x convergence threshold:    0.010000
   Delta-x Convergence Met
 Point Number:   3          Path Number:   1
   CHANGE IN THE REACTION COORDINATE =    0.10553
   NET REACTION COORDINATE UP TO THIS POINT =    0.31697
  # OF POINTS ALONG THE PATH =   3
  # OF STEPS =   1

 Calculating another point on the path.
 IRC-IRC-IRC-IRC-IRC-IRC-IRC-IRC-IRC-IRC-IRC-IRC-IRC-IRC-IRC-IRC-IRC-IRC
                          Input orientation:                          
 ---------------------------------------------------------------------
 Center     Atomic      Atomic             Coordinates (Angstroms)
 Number     Number       Type             X           Y           Z
 ---------------------------------------------------------------------
      1         14           0        0.348543   -0.220167    0.038789
      2          8           0        0.921217   -0.931412   -1.360107
      3          1           0        0.274179   -1.567839   -1.658779
      4          8           0        2.273535    0.989023   -0.024963
      5          1           0        2.811768    0.492628   -0.640061
      6          8           0       -0.466009    1.233267   -0.190752
      7          8           0        1.149445   -0.476722    1.411546
      8          1           0        1.921515    0.148117    1.066729
      9          8           0       -1.135171   -1.116575    0.137706
     10          6           0       -2.206391   -0.252894    0.365383
     11          1           0       -3.136598   -0.676460   -0.032457
     12          1           0       -2.348243   -0.081354    1.443432
     13          6           0       -1.845021    1.064531   -0.327912
     14          1           0       -2.119653    1.014180   -1.392858
     15          1           0       -2.374216    1.915767    0.115413
 ---------------------------------------------------------------------
                    Distance matrix (angstroms):
                    1          2          3          4          5
     1  Si   0.000000
     2  O    1.670549   0.000000
     3  H    2.168752   0.955459   0.000000
     4  O    2.274158   2.701748   3.633774   0.000000
     5  H    2.652620   2.473973   3.423838   0.956268   0.000000
     6  O    1.681861   2.824468   3.247949   2.755402   3.390317
     7  O    1.609884   2.817958   3.373947   2.339988   2.812836
     8  H    1.914819   2.838224   3.617543   1.422264   1.955601
     9  O    1.736300   2.550776   2.327502   4.009897   4.332757
    10  C    2.575932   3.635881   3.461147   4.665240   5.171909
    11  H    3.515606   4.277092   3.882381   5.660691   6.092537
    12  H    3.043838   4.389965   4.325558   4.966158   5.594293
    13  C    2.568393   3.563886   3.632022   4.130374   4.702148
    14  H    3.108893   3.610164   3.531000   4.601290   5.015739
    15  H    3.461431   4.598202   4.721998   4.741324   5.430516
                    6          7          8          9         10
     6  O    0.000000
     7  O    2.846246   0.000000
     8  H    2.908450   1.051386   0.000000
     9  O    2.465242   2.692870   3.435965   0.000000
    10  C    2.355184   3.522242   4.206222   1.394738   0.000000
    11  H    3.286968   4.527163   5.241435   2.056299   1.096800
    12  H    2.818084   3.520107   4.292481   2.061103   1.100789
    13  C    1.396052   3.790515   4.119664   2.340493   1.531945
    14  H    2.056112   4.557902   4.809435   2.802132   2.168966
    15  H    2.049585   4.451983   4.741613   3.275794   2.189462
                   11         12         13         14         15
    11  H    0.000000
    12  H    1.775923   0.000000
    13  C    2.187810   2.168858   0.000000
    14  H    2.396483   3.049097   1.100940   0.000000
    15  H    2.706055   2.398501   1.095987   1.775541   0.000000
 Symmetry turned off by external request.
 Stoichiometry    C2H7O5Si(1-)
 Framework group  C1[X(C2H7O5Si)]
 Deg. of freedom    39
 Full point group                 C1      NOp   1
 Rotational constants (GHZ):           2.8920251           1.4227211           1.3203413
 Standard basis: def2TZVPP (5D, 7F)
   357 basis functions,   545 primitive gaussians,   405 cartesian basis functions
    37 alpha electrons       37 beta electrons
       nuclear repulsion energy       536.4362067728 Hartrees.
 NAtoms=   15 NActive=   15 NUniq=   15 SFac= 1.00D+00 NAtFMM=   60 NAOKFM=F Big=F
 Integral buffers will be    131072 words long.
 Raffenetti 2 integral format.
 Two-electron integral symmetry is turned off.
 Nuclear repulsion after empirical dispersion term =      536.4298434735 Hartrees.
 One-electron integrals computed using PRISM.
   1 Symmetry operations used in ECPInt.
 ECPInt:  NShTT=    8911 NPrTT=   25186 LenC2=    8643 LenP2D=   19497.
 LDataN:  DoStor=T MaxTD1= 6 Len=  172
 NBasis=   357 RedAO= T EigKep=  3.16D-04  NBF=   357
 NBsUse=   357 1.00D-06 EigRej= -1.00D+00 NBFU=   357
 Initial guess from the checkpoint file:  "IRC_PbiL_collapseTo_QbiL_Reverse.chk"
 B after Tr=    -0.000089   -0.000281    0.000452
         Rot=    1.000000   -0.000083    0.000088    0.000032 Ang=  -0.01 deg.
 ExpMin= 7.01D-02 ExpMax= 4.48D+04 ExpMxC= 1.53D+03 IAcc=3 IRadAn=         5 AccDes= 0.00D+00
 Harris functional with IExCor= 4639 and IRadAn=       5 diagonalized for initial guess.
 HarFok:  IExCor= 4639 AccDes= 0.00D+00 IRadAn=         5 IDoV= 1 UseB2=F ITyADJ=14
 ICtDFT=  3500011 ScaDFX=  1.000000  1.000000  1.000000  1.000000
 FoFCou: FMM=F IPFlag=           0 FMFlag=      100000 FMFlg1=           0
         NFxFlg=           0 DoJE=T BraDBF=F KetDBF=T FulRan=T
         wScrn=  0.000000 ICntrl=       500 IOpCl=  0 I1Cent=   200000004 NGrid=           0
         NMat0=    1 NMatS0=      1 NMatT0=    0 NMatD0=    1 NMtDS0=    0 NMtDT0=    0
 Symmetry not used in FoFCou.
 Requested convergence on RMS density matrix=1.00D-08 within 128 cycles.
 Requested convergence on MAX density matrix=1.00D-06.
 Requested convergence on             energy=1.00D-06.
 No special actions if energy rises.
 Integral accuracy reduced to 1.0D-05 until final iterations.
 Initial convergence to 1.0D-05 achieved.  Increase integral accuracy.
 SCF Done:  E(RwB97XD) =  -746.318155775     A.U. after   12 cycles
            NFock= 12  Conv=0.33D-08     -V/T= 2.0033
 DoSCS=F DFT=T ScalE2(SS,OS)=  1.000000  1.000000
 Range of M.O.s used for correlation:     1   357
 NBasis=   357 NAE=    37 NBE=    37 NFC=     0 NFV=     0
 NROrb=    357 NOA=    37 NOB=    37 NVA=   320 NVB=   320

 **** Warning!!: The largest alpha MO coefficient is  0.12242285D+02

 Symmetrizing basis deriv contribution to polar:
 IMax=3 JMax=2 DiffMx= 0.00D+00
   1 Symmetry operations used in ECPInt.
 ECPInt:  NShTT=    8911 NPrTT=   25186 LenC2=    8643 LenP2D=   19497.
 LDataN:  DoStor=T MaxTD1= 7 Len=  274
 Calling FoFJK, ICntrl=      2127 FMM=F ISym2X=0 I1Cent= 0 IOpClX= 0 NMat=1 NMatS=1 NMatT=0.
 -------------------------------------------------------------------
 Center     Atomic                   Forces (Hartrees/Bohr)
 Number     Number              X              Y              Z
 -------------------------------------------------------------------
      1       14           0.011349516    0.012649622   -0.011925936
      2        8          -0.001019066   -0.003019908   -0.000214118
      3        1          -0.000073812   -0.000172923    0.000006950
      4        8          -0.007429107   -0.000799057   -0.006994888
      5        1          -0.000219391    0.000909381   -0.000863405
      6        8          -0.001300207    0.000370233    0.001203796
      7        8          -0.005041987   -0.007813519    0.010316710
      8        1           0.000296340   -0.002824082    0.005747771
      9        8           0.003442036    0.001160647    0.002397657
     10        6           0.000417066   -0.000147882    0.000181282
     11        1           0.000126816   -0.000153128   -0.000047438
     12        1          -0.000088783    0.000002360   -0.000003307
     13        6          -0.000410073   -0.000129858    0.000191627
     14        1           0.000018882   -0.000007295    0.000005222
     15        1          -0.000068229   -0.000024591   -0.000001925
 -------------------------------------------------------------------
 Cartesian Forces:  Max     0.012649622 RMS     0.004227961
 IRC-IRC-IRC-IRC-IRC-IRC-IRC-IRC-IRC-IRC-IRC-IRC-IRC-IRC-IRC-IRC-IRC-IRC
 Pt  4 Step number   1 out of a maximum of 100
 Modified Bulirsch-Stoer Extrapolation Cycles:
    EPS =    0.000010000000000
      PEZero:  N= 2 I= 1 D=  5.51D-04 Err=  5.26D-05
      PEZero:  N= 3 I= 2 D=  5.51D-04 Err=  3.50D-05
      PEZero:  N= 3 I= 1 D=  1.10D-03 Err=  2.70D-07
 Maximum DWI energy   std dev =  0.000008847 at pt    35
 Maximum DWI gradient std dev =  0.066209915 at pt    38
 CORRECTOR INTEGRATION CONVERGENCE:
   Recorrection delta-x convergence threshold:    0.010000
   Delta-x Convergence Met
 Point Number:   4          Path Number:   1
   CHANGE IN THE REACTION COORDINATE =    0.10554
   NET REACTION COORDINATE UP TO THIS POINT =    0.42252
  # OF POINTS ALONG THE PATH =   4
  # OF STEPS =   1

 Calculating another point on the path.
 IRC-IRC-IRC-IRC-IRC-IRC-IRC-IRC-IRC-IRC-IRC-IRC-IRC-IRC-IRC-IRC-IRC-IRC
                          Input orientation:                          
 ---------------------------------------------------------------------
 Center     Atomic      Atomic             Coordinates (Angstroms)
 Number     Number       Type             X           Y           Z
 ---------------------------------------------------------------------
      1         14           0        0.351503   -0.217093    0.036156
      2          8           0        0.920838   -0.932710   -1.360290
      3          1           0        0.273462   -1.569039   -1.658456
      4          8           0        2.270210    0.988556   -0.027758
      5          1           0        2.810297    0.498320   -0.646179
      6          8           0       -0.466547    1.233517   -0.190273
      7          8           0        1.147072   -0.480151    1.415892
      8          1           0        1.921251    0.130321    1.100099
      9          8           0       -1.133679   -1.116006    0.138696
     10          6           0       -2.206074   -0.253033    0.365481
     11          1           0       -3.135697   -0.677503   -0.032808
     12          1           0       -2.348833   -0.081339    1.443411
     13          6           0       -1.845267    1.064445   -0.327799
     14          1           0       -2.119534    1.014118   -1.392817
     15          1           0       -2.374690    1.915597    0.115394
 ---------------------------------------------------------------------
                    Distance matrix (angstroms):
                    1          2          3          4          5
     1  Si   0.000000
     2  O    1.669225   0.000000
     3  H    2.169230   0.955466   0.000000
     4  O    2.266961   2.699576   3.631456   0.000000
     5  H    2.650107   2.475450   3.425523   0.956280   0.000000
     6  O    1.680698   2.826007   3.249230   2.752499   3.389110
     7  O    1.614249   2.821911   3.376461   2.345776   2.824157
     8  H    1.927895   2.860835   3.634922   1.459589   1.993819
     9  O    1.739058   2.549823   2.327024   4.005414   4.333246
    10  C    2.578943   3.635633   3.460678   4.661898   5.172231
    11  H    3.518138   4.275842   3.880714   5.656820   6.092096
    12  H    3.048050   4.390481   4.325652   4.964330   5.596340
    13  C    2.569163   3.564548   3.632479   4.127097   4.700653
    14  H    3.108677   3.610410   3.531246   4.597162   5.012659
    15  H    3.462192   4.599022   4.722494   4.738669   5.428882
                    6          7          8          9         10
     6  O    0.000000
     7  O    2.849594   0.000000
     8  H    2.929791   1.035256   0.000000
     9  O    2.464456   2.690235   3.436600   0.000000
    10  C    2.354708   3.521155   4.209683   1.395057   0.000000
    11  H    3.286512   4.525460   5.244881   2.056642   1.096817
    12  H    2.817937   3.518687   4.289088   2.061411   1.100814
    13  C    1.395839   3.792140   4.134989   2.340586   1.531851
    14  H    2.055874   4.559869   4.829459   2.802654   2.169049
    15  H    2.049311   4.453505   4.755203   3.275861   2.189505
                   11         12         13         14         15
    11  H    0.000000
    12  H    1.775891   0.000000
    13  C    2.187834   2.168775   0.000000
    14  H    2.396622   3.049064   1.100917   0.000000
    15  H    2.706523   2.398343   1.095979   1.775520   0.000000
 Symmetry turned off by external request.
 Stoichiometry    C2H7O5Si(1-)
 Framework group  C1[X(C2H7O5Si)]
 Deg. of freedom    39
 Full point group                 C1      NOp   1
 Rotational constants (GHZ):           2.8867456           1.4230521           1.3213694
 Standard basis: def2TZVPP (5D, 7F)
   357 basis functions,   545 primitive gaussians,   405 cartesian basis functions
    37 alpha electrons       37 beta electrons
       nuclear repulsion energy       536.3012958800 Hartrees.
 NAtoms=   15 NActive=   15 NUniq=   15 SFac= 1.00D+00 NAtFMM=   60 NAOKFM=F Big=F
 Integral buffers will be    131072 words long.
 Raffenetti 2 integral format.
 Two-electron integral symmetry is turned off.
 Nuclear repulsion after empirical dispersion term =      536.2949272210 Hartrees.
 One-electron integrals computed using PRISM.
   1 Symmetry operations used in ECPInt.
 ECPInt:  NShTT=    8911 NPrTT=   25186 LenC2=    8643 LenP2D=   19495.
 LDataN:  DoStor=T MaxTD1= 6 Len=  172
 NBasis=   357 RedAO= T EigKep=  3.17D-04  NBF=   357
 NBsUse=   357 1.00D-06 EigRej= -1.00D+00 NBFU=   357
 Initial guess from the checkpoint file:  "IRC_PbiL_collapseTo_QbiL_Reverse.chk"
 B after Tr=    -0.000045   -0.000208    0.000377
         Rot=    1.000000   -0.000064    0.000066    0.000018 Ang=  -0.01 deg.
 ExpMin= 7.01D-02 ExpMax= 4.48D+04 ExpMxC= 1.53D+03 IAcc=3 IRadAn=         5 AccDes= 0.00D+00
 Harris functional with IExCor= 4639 and IRadAn=       5 diagonalized for initial guess.
 HarFok:  IExCor= 4639 AccDes= 0.00D+00 IRadAn=         5 IDoV= 1 UseB2=F ITyADJ=14
 ICtDFT=  3500011 ScaDFX=  1.000000  1.000000  1.000000  1.000000
 FoFCou: FMM=F IPFlag=           0 FMFlag=      100000 FMFlg1=           0
         NFxFlg=           0 DoJE=T BraDBF=F KetDBF=T FulRan=T
         wScrn=  0.000000 ICntrl=       500 IOpCl=  0 I1Cent=   200000004 NGrid=           0
         NMat0=    1 NMatS0=      1 NMatT0=    0 NMatD0=    1 NMtDS0=    0 NMtDT0=    0
 Symmetry not used in FoFCou.
 Requested convergence on RMS density matrix=1.00D-08 within 128 cycles.
 Requested convergence on MAX density matrix=1.00D-06.
 Requested convergence on             energy=1.00D-06.
 No special actions if energy rises.
 Integral accuracy reduced to 1.0D-05 until final iterations.
 Initial convergence to 1.0D-05 achieved.  Increase integral accuracy.
 SCF Done:  E(RwB97XD) =  -746.319095166     A.U. after   12 cycles
            NFock= 12  Conv=0.29D-08     -V/T= 2.0033
 DoSCS=F DFT=T ScalE2(SS,OS)=  1.000000  1.000000
 Range of M.O.s used for correlation:     1   357
 NBasis=   357 NAE=    37 NBE=    37 NFC=     0 NFV=     0
 NROrb=    357 NOA=    37 NOB=    37 NVA=   320 NVB=   320

 **** Warning!!: The largest alpha MO coefficient is  0.11458993D+02

 Symmetrizing basis deriv contribution to polar:
 IMax=3 JMax=2 DiffMx= 0.00D+00
   1 Symmetry operations used in ECPInt.
 ECPInt:  NShTT=    8911 NPrTT=   25186 LenC2=    8643 LenP2D=   19495.
 LDataN:  DoStor=T MaxTD1= 7 Len=  274
 Calling FoFJK, ICntrl=      2127 FMM=F ISym2X=0 I1Cent= 0 IOpClX= 0 NMat=1 NMatS=1 NMatT=0.
 -------------------------------------------------------------------
 Center     Atomic                   Forces (Hartrees/Bohr)
 Number     Number              X              Y              Z
 -------------------------------------------------------------------
      1       14           0.014058863    0.013984527   -0.011191400
      2        8          -0.000901969   -0.003409674   -0.000641959
      3        1          -0.000127916   -0.000177858    0.000093061
      4        8          -0.008905482   -0.001448385   -0.007323807
      5        1          -0.000352615    0.000930057   -0.000921462
      6        8          -0.001373148    0.000815193    0.001183691
      7        8          -0.006690765   -0.009131702    0.011162906
      8        1           0.000111348   -0.002448699    0.004759901
      9        8           0.003937055    0.001610138    0.002519428
     10        6           0.000729770   -0.000339950    0.000188565
     11        1           0.000145384   -0.000162801   -0.000056921
     12        1          -0.000087671    0.000001148   -0.000002843
     13        6          -0.000480788   -0.000182809    0.000228467
     14        1           0.000015259   -0.000012659    0.000005101
     15        1          -0.000077324   -0.000026527   -0.000002729
 -------------------------------------------------------------------
 Cartesian Forces:  Max     0.014058863 RMS     0.004664628
 IRC-IRC-IRC-IRC-IRC-IRC-IRC-IRC-IRC-IRC-IRC-IRC-IRC-IRC-IRC-IRC-IRC-IRC
 Pt  5 Step number   1 out of a maximum of 100
 Modified Bulirsch-Stoer Extrapolation Cycles:
    EPS =    0.000010000000000
      PEZero:  N= 2 I= 1 D=  5.51D-04 Err=  6.37D-05
      PEZero:  N= 3 I= 2 D=  5.51D-04 Err=  4.24D-05
      PEZero:  N= 3 I= 1 D=  1.10D-03 Err=  1.14D-07
 Maximum DWI energy   std dev =  0.000003969 at pt    35
 Maximum DWI gradient std dev =  0.029042559 at pt    29
 CORRECTOR INTEGRATION CONVERGENCE:
   Recorrection delta-x convergence threshold:    0.010000
   Delta-x Convergence Met
 Point Number:   5          Path Number:   1
   CHANGE IN THE REACTION COORDINATE =    0.10566
   NET REACTION COORDINATE UP TO THIS POINT =    0.52818
  # OF POINTS ALONG THE PATH =   5
  # OF STEPS =   1

 Calculating another point on the path.
 IRC-IRC-IRC-IRC-IRC-IRC-IRC-IRC-IRC-IRC-IRC-IRC-IRC-IRC-IRC-IRC-IRC-IRC
                          Input orientation:                          
 ---------------------------------------------------------------------
 Center     Atomic      Atomic             Coordinates (Angstroms)
 Number     Number       Type             X           Y           Z
 ---------------------------------------------------------------------
      1         14           0        0.355000   -0.213762    0.033702
      2          8           0        0.920518   -0.934139   -1.360627
      3          1           0        0.272384   -1.570252   -1.657576
      4          8           0        2.266285    0.987839   -0.030702
      5          1           0        2.807970    0.503842   -0.652593
      6          8           0       -0.467097    1.233940   -0.189799
      7          8           0        1.144138   -0.483990    1.420455
      8          1           0        1.920817    0.115079    1.128102
      9          8           0       -1.131999   -1.115265    0.139709
     10          6           0       -2.205598   -0.253267    0.365574
     11          1           0       -3.134685   -0.678583   -0.033210
     12          1           0       -2.349390   -0.081351    1.443386
     13          6           0       -1.845537    1.064335   -0.327666
     14          1           0       -2.119432    1.014023   -1.392769
     15          1           0       -2.375216    1.915405    0.115378
 ---------------------------------------------------------------------
                    Distance matrix (angstroms):
                    1          2          3          4          5
     1  Si   0.000000
     2  O    1.668205   0.000000
     3  H    2.169634   0.955455   0.000000
     4  O    2.258540   2.696996   3.628524   0.000000
     5  H    2.646323   2.476203   3.426522   0.956255   0.000000
     6  O    1.679773   2.827875   3.250337   2.749046   3.387224
     7  O    1.618285   2.826139   3.378490   2.351883   2.835786
     8  H    1.938461   2.880144   3.649339   1.491269   2.027080
     9  O    1.742156   2.548850   2.325841   4.000052   4.332737
    10  C    2.582316   3.635375   3.459476   4.657801   5.171629
    11  H    3.521141   4.274578   3.878370   5.652207   6.090724
    12  H    3.052616   4.391131   4.325100   4.961911   5.597673
    13  C    2.570307   3.565384   3.632533   4.123241   4.698389
    14  H    3.108872   3.610770   3.531201   4.592431   5.008736
    15  H    3.463250   4.600038   4.722600   4.735530   5.426574
                    6          7          8          9         10
     6  O    0.000000
     7  O    2.853118   0.000000
     8  H    2.948023   1.023516   0.000000
     9  O    2.463623   2.686935   3.436619   0.000000
    10  C    2.354275   3.519480   4.212413   1.395232   0.000000
    11  H    3.286076   4.523200   5.247537   2.057023   1.096871
    12  H    2.817856   3.516729   4.286334   2.061697   1.100868
    13  C    1.395662   3.793599   4.147984   2.340562   1.531763
    14  H    2.055654   4.561706   4.846287   2.803102   2.169152
    15  H    2.049011   4.454905   4.766831   3.275842   2.189636
                   11         12         13         14         15
    11  H    0.000000
    12  H    1.775869   0.000000
    13  C    2.187778   2.168661   0.000000
    14  H    2.396676   3.049017   1.100906   0.000000
    15  H    2.706963   2.398189   1.095978   1.775506   0.000000
 Symmetry turned off by external request.
 Stoichiometry    C2H7O5Si(1-)
 Framework group  C1[X(C2H7O5Si)]
 Deg. of freedom    39
 Full point group                 C1      NOp   1
 Rotational constants (GHZ):           2.8813349           1.4236518           1.3226280
 Standard basis: def2TZVPP (5D, 7F)
   357 basis functions,   545 primitive gaussians,   405 cartesian basis functions
    37 alpha electrons       37 beta electrons
       nuclear repulsion energy       536.1889219974 Hartrees.
 NAtoms=   15 NActive=   15 NUniq=   15 SFac= 1.00D+00 NAtFMM=   60 NAOKFM=F Big=F
 Integral buffers will be    131072 words long.
 Raffenetti 2 integral format.
 Two-electron integral symmetry is turned off.
 Nuclear repulsion after empirical dispersion term =      536.1825487996 Hartrees.
 One-electron integrals computed using PRISM.
   1 Symmetry operations used in ECPInt.
 ECPInt:  NShTT=    8911 NPrTT=   25186 LenC2=    8643 LenP2D=   19495.
 LDataN:  DoStor=T MaxTD1= 6 Len=  172
 NBasis=   357 RedAO= T EigKep=  3.18D-04  NBF=   357
 NBsUse=   357 1.00D-06 EigRej= -1.00D+00 NBFU=   357
 Initial guess from the checkpoint file:  "IRC_PbiL_collapseTo_QbiL_Reverse.chk"
 B after Tr=    -0.000054   -0.000166    0.000295
         Rot=    1.000000   -0.000048    0.000047    0.000011 Ang=  -0.01 deg.
 ExpMin= 7.01D-02 ExpMax= 4.48D+04 ExpMxC= 1.53D+03 IAcc=3 IRadAn=         5 AccDes= 0.00D+00
 Harris functional with IExCor= 4639 and IRadAn=       5 diagonalized for initial guess.
 HarFok:  IExCor= 4639 AccDes= 0.00D+00 IRadAn=         5 IDoV= 1 UseB2=F ITyADJ=14
 ICtDFT=  3500011 ScaDFX=  1.000000  1.000000  1.000000  1.000000
 FoFCou: FMM=F IPFlag=           0 FMFlag=      100000 FMFlg1=           0
         NFxFlg=           0 DoJE=T BraDBF=F KetDBF=T FulRan=T
         wScrn=  0.000000 ICntrl=       500 IOpCl=  0 I1Cent=   200000004 NGrid=           0
         NMat0=    1 NMatS0=      1 NMatT0=    0 NMatD0=    1 NMtDS0=    0 NMtDT0=    0
 Symmetry not used in FoFCou.
 Requested convergence on RMS density matrix=1.00D-08 within 128 cycles.
 Requested convergence on MAX density matrix=1.00D-06.
 Requested convergence on             energy=1.00D-06.
 No special actions if energy rises.
 Integral accuracy reduced to 1.0D-05 until final iterations.
 Initial convergence to 1.0D-05 achieved.  Increase integral accuracy.
 SCF Done:  E(RwB97XD) =  -746.320016377     A.U. after   11 cycles
            NFock= 11  Conv=0.43D-08     -V/T= 2.0033
 DoSCS=F DFT=T ScalE2(SS,OS)=  1.000000  1.000000
 Range of M.O.s used for correlation:     1   357
 NBasis=   357 NAE=    37 NBE=    37 NFC=     0 NFV=     0
[...]
      6        8           0.000112709    0.000504472    0.000117472
      7        8          -0.000576742    0.001052874    0.001099905
      8        1          -0.001724749   -0.000631159   -0.000281916
      9        8           0.000818446    0.000116222   -0.001428105
     10        6           0.000940029   -0.000088963    0.000647530
     11        1           0.000031006   -0.000011881    0.000091592
     12        1           0.000143381   -0.000024850    0.000043601
     13        6           0.000050374    0.000136100    0.000786698
     14        1          -0.000036071    0.000018996    0.000049481
     15        1          -0.000001383   -0.000009314    0.000082806
 -------------------------------------------------------------------
 Cartesian Forces:  Max     0.003084683 RMS     0.000855271
 IRC-IRC-IRC-IRC-IRC-IRC-IRC-IRC-IRC-IRC-IRC-IRC-IRC-IRC-IRC-IRC-IRC-IRC
 Error in corrector energy =          -0.0000265028
 Magnitude of corrector gradient =     0.0042145803
 Magnitude of analytic gradient =      0.0057373290
 Magnitude of difference =             0.0052573753
 Angle between gradients (degrees)=   61.5488
 Pt 49 Step number  98 out of a maximum of 100
 Modified Bulirsch-Stoer Extrapolation Cycles:
    EPS =    0.000010000000000
      PEZero:  N= 2 I= 1 D=  5.51D-04 Err=  7.02D-05
      PEZero:  N= 3 I= 2 D=  5.51D-04 Err=  4.66D-05
      PEZero:  N= 3 I= 1 D=  1.10D-03 Err=  2.98D-07
 Maximum DWI energy   std dev =  0.000002606 at pt    -1
 Maximum DWI gradient std dev =  0.483889318 at pt    29
 CORRECTOR INTEGRATION CONVERGENCE:
   Recorrection delta-x convergence threshold:    0.010000
   Delta-x Convergence NOT Met
 IRC-IRC-IRC-IRC-IRC-IRC-IRC-IRC-IRC-IRC-IRC-IRC-IRC-IRC-IRC-IRC-IRC-IRC
                          Input orientation:                          
 ---------------------------------------------------------------------
 Center     Atomic      Atomic             Coordinates (Angstroms)
 Number     Number       Type             X           Y           Z
 ---------------------------------------------------------------------
      1         14           0        0.514397   -0.089418    0.005279
      2          8           0        0.928777   -0.991286   -1.373448
      3          1           0        0.203032   -1.594636   -1.525239
      4          8           0        1.972080    0.862547   -0.139659
      5          1           0        2.345054    0.710256   -1.000617
      6          8           0       -0.467391    1.298878   -0.180262
      7          8           0        0.977099   -0.603640    1.544690
      8          1           0        1.839074   -0.220475    1.688319
      9          8           0       -1.009038   -1.062379    0.130170
     10          6           0       -2.114165   -0.275266    0.374875
     11          1           0       -3.032524   -0.737132   -0.017816
     12          1           0       -2.265632   -0.111924    1.457660
     13          6           0       -1.833058    1.064318   -0.307977
     14          1           0       -2.112626    1.006217   -1.372791
     15          1           0       -2.405252    1.886134    0.142259
 ---------------------------------------------------------------------
                    Distance matrix (angstroms):
                    1          2          3          4          5
     1  Si   0.000000
     2  O    1.698813   0.000000
     3  H    2.169128   0.955917   0.000000
     4  O    1.747021   2.459149   3.329731   0.000000
     5  H    2.236651   2.245015   3.189987   0.950553   0.000000
     6  O    1.710468   2.935614   3.260499   2.478518   2.988194
     7  O    1.687692   2.944169   3.317486   2.444733   3.174305
     8  H    2.145826   3.285910   3.859003   2.128879   2.890095
     9  O    1.811935   2.453782   2.119620   3.558822   3.958642
    10  C    2.660917   3.581733   3.274228   4.272793   4.769472
    11  H    3.605651   4.194549   3.671030   5.255462   5.655013
    12  H    3.136635   4.358061   4.146133   4.632410   5.289379
    13  C    2.634347   3.603952   3.563344   3.814199   4.249909
    14  H    3.162395   3.638701   3.485677   4.269201   4.482969
    15  H    3.527878   4.657538   4.658267   4.504247   5.025362
                    6          7          8          9         10
     6  O    0.000000
     7  O    2.946453   0.000000
     8  H    3.334638   0.954173   0.000000
     9  O    2.442394   2.481139   3.353860   0.000000
    10  C    2.344775   3.321477   4.166082   1.378670   0.000000
    11  H    3.278969   4.305383   5.187514   2.054795   1.100414
    12  H    2.811907   3.280955   4.112615   2.060248   1.105462
    13  C    1.391537   3.756520   4.372693   2.322460   1.529638
    14  H    2.052943   4.544198   5.146950   2.784939   2.167149
    15  H    2.050413   4.427877   4.984216   3.262405   2.193283
                   11         12         13         14         15
    11  H    0.000000
    12  H    1.776524   0.000000
    13  C    2.183606   2.165211   0.000000
    14  H    2.391952   3.047146   1.102434   0.000000
    15  H    2.701966   2.396249   1.097953   1.776305   0.000000
 Symmetry turned off by external request.
 Stoichiometry    C2H7O5Si(1-)
 Framework group  C1[X(C2H7O5Si)]
 Deg. of freedom    39
 Full point group                 C1      NOp   1
 Rotational constants (GHZ):           2.7586217           1.5433246           1.4448120
 Standard basis: def2TZVPP (5D, 7F)
   357 basis functions,   545 primitive gaussians,   405 cartesian basis functions
    37 alpha electrons       37 beta electrons
       nuclear repulsion energy       544.4307741682 Hartrees.
 NAtoms=   15 NActive=   15 NUniq=   15 SFac= 1.00D+00 NAtFMM=   60 NAOKFM=F Big=F
 Integral buffers will be    131072 words long.
 Raffenetti 2 integral format.
 Two-electron integral symmetry is turned off.
 Nuclear repulsion after empirical dispersion term =      544.4243971631 Hartrees.
 One-electron integrals computed using PRISM.
   1 Symmetry operations used in ECPInt.
 ECPInt:  NShTT=    8911 NPrTT=   25186 LenC2=    8689 LenP2D=   19651.
 LDataN:  DoStor=T MaxTD1= 6 Len=  172
 NBasis=   357 RedAO= T EigKep=  3.37D-04  NBF=   357
 NBsUse=   357 1.00D-06 EigRej= -1.00D+00 NBFU=   357
 Initial guess from the checkpoint file:  "IRC_PbiL_collapseTo_QbiL_Reverse.chk"
 B after Tr=    -0.000087   -0.000084    0.000076
         Rot=    1.000000    0.000086   -0.000036   -0.000017 Ang=   0.01 deg.
 ExpMin= 7.01D-02 ExpMax= 4.48D+04 ExpMxC= 1.53D+03 IAcc=3 IRadAn=         5 AccDes= 0.00D+00
 Harris functional with IExCor= 4639 and IRadAn=       5 diagonalized for initial guess.
 HarFok:  IExCor= 4639 AccDes= 0.00D+00 IRadAn=         5 IDoV= 1 UseB2=F ITyADJ=14
 ICtDFT=  3500011 ScaDFX=  1.000000  1.000000  1.000000  1.000000
 FoFCou: FMM=F IPFlag=           0 FMFlag=      100000 FMFlg1=           0
         NFxFlg=           0 DoJE=T BraDBF=F KetDBF=T FulRan=T
         wScrn=  0.000000 ICntrl=       500 IOpCl=  0 I1Cent=   200000004 NGrid=           0
         NMat0=    1 NMatS0=      1 NMatT0=    0 NMatD0=    1 NMtDS0=    0 NMtDT0=    0
 Symmetry not used in FoFCou.
 Requested convergence on RMS density matrix=1.00D-08 within 128 cycles.
 Requested convergence on MAX density matrix=1.00D-06.
 Requested convergence on             energy=1.00D-06.
 No special actions if energy rises.
 Integral accuracy reduced to 1.0D-05 until final iterations.
 Initial convergence to 1.0D-05 achieved.  Increase integral accuracy.
 SCF Done:  E(RwB97XD) =  -746.356948649     A.U. after    9 cycles
            NFock=  9  Conv=0.70D-08     -V/T= 2.0033
 DoSCS=F DFT=T ScalE2(SS,OS)=  1.000000  1.000000
 Range of M.O.s used for correlation:     1   357
 NBasis=   357 NAE=    37 NBE=    37 NFC=     0 NFV=     0
 NROrb=    357 NOA=    37 NOB=    37 NVA=   320 NVB=   320

 **** Warning!!: The largest alpha MO coefficient is  0.14673160D+02

 Symmetrizing basis deriv contribution to polar:
 IMax=3 JMax=2 DiffMx= 0.00D+00
   1 Symmetry operations used in ECPInt.
 ECPInt:  NShTT=    8911 NPrTT=   25186 LenC2=    8689 LenP2D=   19651.
 LDataN:  DoStor=T MaxTD1= 7 Len=  274
 Calling FoFJK, ICntrl=      2127 FMM=F ISym2X=0 I1Cent= 0 IOpClX= 0 NMat=1 NMatS=1 NMatT=0.
 -------------------------------------------------------------------
 Center     Atomic                   Forces (Hartrees/Bohr)
 Number     Number              X              Y              Z
 -------------------------------------------------------------------
      1       14          -0.000009289   -0.000094907   -0.000179872
      2        8           0.000315736   -0.001028520    0.000204436
      3        1           0.000302078    0.000202056   -0.000028055
      4        8          -0.001295134   -0.000526651    0.001770031
      5        1           0.000887066    0.000269508   -0.002742073
      6        8           0.000043808    0.000478493    0.000143316
      7        8          -0.003875501   -0.000167619    0.000062068
      8        1           0.001704121    0.000761844    0.000499005
      9        8           0.000866887    0.000081662   -0.001462140
     10        6           0.000968824   -0.000129652    0.000648049
     11        1          -0.000031331    0.000025291    0.000101610
     12        1           0.000091350   -0.000003005    0.000049795
     13        6           0.000056232    0.000113733    0.000815742
     14        1          -0.000049973    0.000019788    0.000047899
     15        1           0.000025126   -0.000002021    0.000070190
 -------------------------------------------------------------------
 Cartesian Forces:  Max     0.003875501 RMS     0.000929309
 IRC-IRC-IRC-IRC-IRC-IRC-IRC-IRC-IRC-IRC-IRC-IRC-IRC-IRC-IRC-IRC-IRC-IRC
 Error in corrector energy =          -0.0000255113
 Magnitude of corrector gradient =     0.0039122008
 Magnitude of analytic gradient =      0.0062339923
 Magnitude of difference =             0.0050958414
 Angle between gradients (degrees)=   54.6798
 Pt 49 Step number  99 out of a maximum of 100
 Modified Bulirsch-Stoer Extrapolation Cycles:
    EPS =    0.000010000000000
      PEZero:  N= 2 I= 1 D=  5.51D-04 Err=  1.10D-04
      PEZero:  N= 3 I= 2 D=  5.51D-04 Err=  7.36D-05
      PEZero:  N= 3 I= 1 D=  1.10D-03 Err=  4.33D-07
 Maximum DWI energy   std dev =  0.000008288 at pt    -1
 Maximum DWI gradient std dev =  0.567426004 at pt    57
 CORRECTOR INTEGRATION CONVERGENCE:
   Recorrection delta-x convergence threshold:    0.010000
   Delta-x Convergence NOT Met
 IRC-IRC-IRC-IRC-IRC-IRC-IRC-IRC-IRC-IRC-IRC-IRC-IRC-IRC-IRC-IRC-IRC-IRC
                          Input orientation:                          
 ---------------------------------------------------------------------
 Center     Atomic      Atomic             Coordinates (Angstroms)
 Number     Number       Type             X           Y           Z
 ---------------------------------------------------------------------
      1         14           0        0.514259   -0.089520    0.005348
      2          8           0        0.928691   -0.991069   -1.373453
      3          1           0        0.203903   -1.594035   -1.527082
      4          8           0        1.972942    0.862091   -0.138435
      5          1           0        2.347588    0.716879   -1.005568
      6          8           0       -0.467439    1.298742   -0.180304
      7          8           0        0.977007   -0.603638    1.543977
      8          1           0        1.842990   -0.221339    1.689313
      9          8           0       -1.009390   -1.062401    0.130433
     10          6           0       -2.114581   -0.275191    0.374668
     11          1           0       -3.033148   -0.736531   -0.018369
     12          1           0       -2.266912   -0.111625    1.457341
     13          6           0       -1.833078    1.064315   -0.308184
     14          1           0       -2.112612    1.006192   -1.373026
     15          1           0       -2.405017    1.886412    0.141819
 ---------------------------------------------------------------------
                    Distance matrix (angstroms):
                    1          2          3          4          5
     1  Si   0.000000
     2  O    1.698716   0.000000
     3  H    2.169845   0.955241   0.000000
     4  O    1.747568   2.459661   3.330224   0.000000
     5  H    2.243508   2.250710   3.194947   0.955701   0.000000
     6  O    1.710399   2.935305   3.260777   2.479492   2.990652
     7  O    1.686960   2.943440   3.318129   2.443514   3.181578
     8  H    2.149102   3.287698   3.862135   2.128702   2.897802
     9  O    1.812084   2.454163   2.121808   3.559532   3.965557
    10  C    2.661141   3.581887   3.275877   4.273703   4.774957
    11  H    3.606006   4.194903   3.672877   5.256515   5.660325
    12  H    3.137464   4.358749   4.148403   4.633680   5.295843
    13  C    2.634317   3.603716   3.563962   3.815167   4.252649
    14  H    3.162428   3.638486   3.485851   4.270449   4.484653
    15  H    3.527761   4.657204   4.658884   4.504920   5.027082
                    6          7          8          9         10
     6  O    0.000000
     7  O    2.945950   0.000000
     8  H    3.338292   0.957706   0.000000
     9  O    2.442389   2.480795   3.357612   0.000000
    10  C    2.344853   3.321608   4.170559   1.378695   0.000000
    11  H    3.278936   4.305801   5.192140   2.055220   1.100490
    12  H    2.812316   3.282162   4.117905   2.060587   1.105504
    13  C    1.391502   3.756214   4.376799   2.322449   1.529643
    14  H    2.052989   4.543810   5.150877   2.785062   2.167113
    15  H    2.050202   4.427695   4.988277   3.262423   2.193421
                   11         12         13         14         15
    11  H    0.000000
    12  H    1.776329   0.000000
    13  C    2.183393   2.165208   0.000000
    14  H    2.391561   3.047015   1.102454   0.000000
    15  H    2.701858   2.396210   1.097934   1.776244   0.000000
 Symmetry turned off by external request.
 Stoichiometry    C2H7O5Si(1-)
 Framework group  C1[X(C2H7O5Si)]
 Deg. of freedom    39
 Full point group                 C1      NOp   1
 Rotational constants (GHZ):           2.7591129           1.5428811           1.4444283
 Standard basis: def2TZVPP (5D, 7F)
   357 basis functions,   545 primitive gaussians,   405 cartesian basis functions
    37 alpha electrons       37 beta electrons
       nuclear repulsion energy       544.3558181948 Hartrees.
 NAtoms=   15 NActive=   15 NUniq=   15 SFac= 1.00D+00 NAtFMM=   60 NAOKFM=F Big=F
 Integral buffers will be    131072 words long.
 Raffenetti 2 integral format.
 Two-electron integral symmetry is turned off.
 Nuclear repulsion after empirical dispersion term =      544.3494446832 Hartrees.
 One-electron integrals computed using PRISM.
   1 Symmetry operations used in ECPInt.
 ECPInt:  NShTT=    8911 NPrTT=   25186 LenC2=    8689 LenP2D=   19651.
 LDataN:  DoStor=T MaxTD1= 6 Len=  172
 NBasis=   357 RedAO= T EigKep=  3.37D-04  NBF=   357
 NBsUse=   357 1.00D-06 EigRej= -1.00D+00 NBFU=   357
 Initial guess from the checkpoint file:  "IRC_PbiL_collapseTo_QbiL_Reverse.chk"
 B after Tr=     0.000087    0.000084   -0.000076
         Rot=    1.000000   -0.000086    0.000036    0.000017 Ang=  -0.01 deg.
 ExpMin= 7.01D-02 ExpMax= 4.48D+04 ExpMxC= 1.53D+03 IAcc=3 IRadAn=         5 AccDes= 0.00D+00
 Harris functional with IExCor= 4639 and IRadAn=       5 diagonalized for initial guess.
 HarFok:  IExCor= 4639 AccDes= 0.00D+00 IRadAn=         5 IDoV= 1 UseB2=F ITyADJ=14
 ICtDFT=  3500011 ScaDFX=  1.000000  1.000000  1.000000  1.000000
 FoFCou: FMM=F IPFlag=           0 FMFlag=      100000 FMFlg1=           0
         NFxFlg=           0 DoJE=T BraDBF=F KetDBF=T FulRan=T
         wScrn=  0.000000 ICntrl=       500 IOpCl=  0 I1Cent=   200000004 NGrid=           0
         NMat0=    1 NMatS0=      1 NMatT0=    0 NMatD0=    1 NMtDS0=    0 NMtDT0=    0
 Symmetry not used in FoFCou.
 Requested convergence on RMS density matrix=1.00D-08 within 128 cycles.
 Requested convergence on MAX density matrix=1.00D-06.
 Requested convergence on             energy=1.00D-06.
 No special actions if energy rises.
 Integral accuracy reduced to 1.0D-05 until final iterations.
 Initial convergence to 1.0D-05 achieved.  Increase integral accuracy.
 SCF Done:  E(RwB97XD) =  -746.356951812     A.U. after    9 cycles
            NFock=  9  Conv=0.96D-08     -V/T= 2.0033
 DoSCS=F DFT=T ScalE2(SS,OS)=  1.000000  1.000000
 Range of M.O.s used for correlation:     1   357
 NBasis=   357 NAE=    37 NBE=    37 NFC=     0 NFV=     0
 NROrb=    357 NOA=    37 NOB=    37 NVA=   320 NVB=   320

 **** Warning!!: The largest alpha MO coefficient is  0.14696533D+02

 Symmetrizing basis deriv contribution to polar:
 IMax=3 JMax=2 DiffMx= 0.00D+00
   1 Symmetry operations used in ECPInt.
 ECPInt:  NShTT=    8911 NPrTT=   25186 LenC2=    8689 LenP2D=   19651.
 LDataN:  DoStor=T MaxTD1= 7 Len=  274
 Calling FoFJK, ICntrl=      2127 FMM=F ISym2X=0 I1Cent= 0 IOpClX= 0 NMat=1 NMatS=1 NMatT=0.
 -------------------------------------------------------------------
 Center     Atomic                   Forces (Hartrees/Bohr)
 Number     Number              X              Y              Z
 -------------------------------------------------------------------
      1       14           0.000322375   -0.000032119   -0.000547691
      2        8           0.000824698   -0.000605385    0.000219224
      3        1          -0.000244681   -0.000202865   -0.000065802
      4        8           0.000903640   -0.001173649   -0.003084683
      5        1          -0.001563032    0.000951518    0.002269889
      6        8           0.000112709    0.000504472    0.000117472
      7        8          -0.000576742    0.001052874    0.001099905
      8        1          -0.001724749   -0.000631159   -0.000281916
      9        8           0.000818446    0.000116222   -0.001428105
     10        6           0.000940029   -0.000088963    0.000647530
     11        1           0.000031006   -0.000011881    0.000091592
     12        1           0.000143381   -0.000024850    0.000043601
     13        6           0.000050374    0.000136100    0.000786698
     14        1          -0.000036071    0.000018996    0.000049481
     15        1          -0.000001383   -0.000009314    0.000082806
 -------------------------------------------------------------------
 Cartesian Forces:  Max     0.003084683 RMS     0.000855271
 IRC-IRC-IRC-IRC-IRC-IRC-IRC-IRC-IRC-IRC-IRC-IRC-IRC-IRC-IRC-IRC-IRC-IRC
 Error in corrector energy =          -0.0000265028
 Magnitude of corrector gradient =     0.0042145803
 Magnitude of analytic gradient =      0.0057373291
 Magnitude of difference =             0.0052573753
 Angle between gradients (degrees)=   61.5488
 Pt 49 Step number 100 out of a maximum of 100
 Modified Bulirsch-Stoer Extrapolation Cycles:
    EPS =    0.000010000000000
      PEZero:  N= 2 I= 1 D=  5.51D-04 Err=  7.02D-05
      PEZero:  N= 3 I= 2 D=  5.51D-04 Err=  4.66D-05
      PEZero:  N= 3 I= 1 D=  1.10D-03 Err=  2.98D-07
 Maximum DWI energy   std dev =  0.000002606 at pt    -1
 Maximum DWI gradient std dev =  0.483889322 at pt    29
 CORRECTOR INTEGRATION CONVERGENCE:
   Recorrection delta-x convergence threshold:    0.010000
   Delta-x Convergence NOT Met
 Maximum number of corrector steps exceded.
 Error termination via Lnk1e in /opt/software/gaussian/g16.c01/l123.exe at Fri Feb 16 00:41:15 2024.
 Job cpu time:       1 days 15 hours 22 minutes 50.4 seconds.
 Elapsed time:       0 days 11 hours 13 minutes 59.0 seconds.
 File lengths (MBytes):  RWF=    177 Int=      0 D2E=      0 Chk=     11 Scr=      1
