 Entering Gaussian System, Link 0=/opt/software/gaussian/g16.c01/g16
 Initial command:
 /opt/software/gaussian/g16.c01/l1.exe "/scratch/arhender/16037713/Gau-23571.inp" -scrdir="/scratch/arhender/16037713/"
 Entering Link 1 = /opt/software/gaussian/g16.c01/l1.exe PID=     23575.
  
 Copyright (c) 1988-2019, Gaussian, Inc.  All Rights Reserved.
  
 This is part of the Gaussian(R) 16 program.  It is based on
 the Gaussian(R) 09 system (copyright 2009, Gaussian, Inc.),
 the Gaussian(R) 03 system (copyright 2003, Gaussian, Inc.),
 the Gaussian(R) 98 system (copyright 1998, Gaussian, Inc.),
 the Gaussian(R) 94 system (copyright 1995, Gaussian, Inc.),
 the Gaussian 92(TM) system (copyright 1992, Gaussian, Inc.),
 the Gaussian 90(TM) system (copyright 1990, Gaussian, Inc.),
 the Gaussian 88(TM) system (copyright 1988, Gaussian, Inc.),
 the Gaussian 86(TM) system (copyright 1986, Carnegie Mellon
 University), and the Gaussian 82(TM) system (copyright 1983,
 Carnegie Mellon University). Gaussian is a federally registered
 trademark of Gaussian, Inc.
  
 This software contains proprietary and confidential information,
 including trade secrets, belonging to Gaussian, Inc.
  
 This software is provided under written license and may be
 used, copied, transmitted, or stored only in accord with that
 written license.
  
 The following legend is applicable only to US Government
 contracts under FAR:
  
                    RESTRICTED RIGHTS LEGEND
  
 Use, reproduction and disclosure by the US Government is
 subject to restrictions as set forth in subparagraphs (a)
 and (c) of the Commercial Computer Software - Restricted
 Rights clause in FAR 52.227-19.
  
 Gaussian, Inc.
 340 Quinnipiac St., Bldg. 40, Wallingford CT 06492
  
  
 ---------------------------------------------------------------
 Warning -- This program may not be used in any manner that
 competes with the business of Gaussian, Inc. or will provide
 assistance to any competitor of Gaussian, Inc.  The licensee
 of this program is prohibited from giving any competitor of
 Gaussian, Inc. access to this program.  By using this program,
 the user acknowledges that Gaussian, Inc. is engaged in the
 business of creating and licensing software in the field of
 computational chemistry and represents and warrants to the
 licensee that it is not a competitor of Gaussian, Inc. and that
 it will not use this program in any manner prohibited above.
 ---------------------------------------------------------------
  

 Cite this work as:
 Gaussian 16, Revision C.01,
 M. J. Frisch, G. W. Trucks, H. B. Schlegel, G. E. Scuseria, 
 M. A. Robb, J. R. Cheeseman, G. Scalmani, V. Barone, 
 G. A. Petersson, H. Nakatsuji, X. Li, M. Caricato, A. V. Marenich, 
 J. Bloino, B. G. Janesko, R. Gomperts, B. Mennucci, H. P. Hratchian, 
 J. V. Ortiz, A. F. Izmaylov, J. L. Sonnenberg, D. Williams-Young, 
 F. Ding, F. Lipparini, F. Egidi, J. Goings, B. Peng, A. Petrone, 
 T. Henderson, D. Ranasinghe, V. G. Zakrzewski, J. Gao, N. Rega, 
 G. Zheng, W. Liang, M. Hada, M. Ehara, K. Toyota, R. Fukuda, 
 J. Hasegawa, M. Ishida, T. Nakajima, Y. Honda, O. Kitao, H. Nakai, 
 T. Vreven, K. Throssell, J. A. Montgomery, Jr., J. E. Peralta, 
 F. Ogliaro, M. J. Bearpark, J. J. Heyd, E. N. Brothers, K. N. Kudin, 
 V. N. Staroverov, T. A. Keith, R. Kobayashi, J. Normand, 
 K. Raghavachari, A. P. Rendell, J. C. Burant, S. S. Iyengar, 
 J. Tomasi, M. Cossi, J. M. Millam, M. Klene, C. Adamo, R. Cammi, 
 J. W. Ochterski, R. L. Martin, K. Morokuma, O. Farkas, 
 J. B. Foresman, and D. J. Fox, Gaussian, Inc., Wallingford CT, 2019.
 
 ******************************************
 Gaussian 16:  ES64L-G16RevC.01  3-Jul-2019
                22-Oct-2023 
 ******************************************
 %chk=IRCSiAttack_100step_maxcycles100_ReverseOnly.chk
 %mem=8GB
 %nprocs=16
 Will use up to   16 processors via shared memory.
 ----------------------------------------------------------------------
 # irc=(reverse,calcfc,maxpoints=100,maxcycles=100,stepsize=2) wb97xd/d
 ef2tzvpp geom=connectivity
 ----------------------------------------------------------------------
 1/6=100,10=4,18=10,22=2,26=3,38=1,39=2,42=100,44=3,57=2,172=1/1,23;
 2/12=2,17=6,18=5,29=1,40=1/2;
 3/5=44,7=202,11=2,25=1,30=1,71=2,74=-58,140=1/1,2,3;
 4//1;
 5/5=2,38=5/2;
 8/6=4,10=90,11=11/1;
 11/6=1,8=1,9=11,15=111,16=1/1,2,10;
 10/6=1,13=1/2;
 6/7=2,8=2,9=2,10=2,28=1/1;
 7/10=1,25=1/1,2,3,16;
 1/6=100,10=4,18=10,22=2,26=3,39=2,42=100,44=3/23(2);
 2/29=1/2;
 99/5=20/99;
 2/29=1/2;
 3/5=44,7=202,11=2,25=1,30=1,71=2,74=-58,140=1/1,2,3;
 4/5=5,16=3,69=1/1;
 5/5=2,38=5/2;
 8/6=4,10=90,11=11/1;
 11/6=1,8=1,9=11,15=111,16=1/1,2,10;
 10/6=1,13=1/2;
 7/10=1,25=1/1,2,3,16;
 1/6=100,18=10,22=2,26=3,39=2,42=100,44=3/23(-8);
 2/29=1/2;
 6/7=2,8=2,9=2,10=2,19=2,28=1/1;
 99/5=20,9=1/99;
 ---------------------------------------------
 IRC calculation SiOH4 attack proper structure
 ---------------------------------------------
 Symbolic Z-matrix:
 Charge =  0 Multiplicity = 1
 C                     1.60762   0.69658   0.77747 
 H                     0.72137   1.04799   1.31097 
 H                     2.46739   0.86775   1.42761 
 C                     1.47049  -0.778     0.52507 
 H                     1.07406  -1.08992  -0.42348 
 H                     1.70779  -1.50584   1.285 
 O                     1.80984   1.35225  -0.43916 
 H                     3.05454   0.09968  -0.73228 
 O                     3.29017  -0.77004  -0.32764 
 H                     3.3365   -1.40422  -1.04542 
 Si                   -1.43319   0.02462  -0.16669 
 O                    -2.0961    1.2529    0.69898 
 H                    -2.81962   1.02845   1.27872 
 O                    -0.42356   0.48345  -1.25549 
 H                     0.93473   1.17946  -0.93363 
 O                    -0.60264  -0.92481   1.02628 
 H                    -0.93086  -1.82339   1.05883 
 O                    -2.61744  -1.04522  -0.60021 
 H                    -2.83214  -1.04428  -1.53 
 
 IRC-IRC-IRC-IRC-IRC-IRC-IRC-IRC-IRC-IRC-IRC-IRC-IRC-IRC-IRC-IRC-IRC-IRC
 ------------------------------------------------------------------------
 INPUT DATA FOR L123
 ------------------------------------------------------------------------
 GENERAL PARAMETERS:
 Rxn path following direction = Reverse
 Maximum points per path      = 100
 Step size                    =   0.020 bohr
 Integration scheme           = HPC                                 
    Redo corrector integration= Yes                                 
    DWI Weight Power          =  2
    DWI will use Hessian update vectors when possible.
    Max correction cycles     = 100
 Initial Hessian              = CalcFC
 Hessian evaluation           = All updating
 Hessian updating method      = Bofill                              
 ------------------------------------------------------------------------
 IRC-IRC-IRC-IRC-IRC-IRC-IRC-IRC-IRC-IRC-IRC-IRC-IRC-IRC-IRC-IRC-IRC-IRC
                          Input orientation:                          
 ---------------------------------------------------------------------
 Center     Atomic      Atomic             Coordinates (Angstroms)
 Number     Number       Type             X           Y           Z
 ---------------------------------------------------------------------
      1          6           0        1.607619    0.696579    0.777475
      2          1           0        0.721370    1.047989    1.310972
      3          1           0        2.467391    0.867746    1.427607
      4          6           0        1.470488   -0.778002    0.525069
      5          1           0        1.074060   -1.089916   -0.423479
      6          1           0        1.707787   -1.505842    1.285005
      7          8           0        1.809837    1.352255   -0.439161
      8          1           0        3.054540    0.099675   -0.732277
      9          8           0        3.290169   -0.770044   -0.327638
     10          1           0        3.336504   -1.404220   -1.045420
     11         14           0       -1.433186    0.024618   -0.166691
     12          8           0       -2.096095    1.252897    0.698981
     13          1           0       -2.819620    1.028448    1.278720
     14          8           0       -0.423555    0.483446   -1.255487
     15          1           0        0.934731    1.179461   -0.933632
     16          8           0       -0.602644   -0.924806    1.026280
     17          1           0       -0.930865   -1.823387    1.058831
     18          8           0       -2.617437   -1.045221   -0.600214
     19          1           0       -2.832144   -1.044278   -1.530005
 ---------------------------------------------------------------------
                    Distance matrix (angstroms):
                    1          2          3          4          5
     1  C    0.000000
     2  H    1.092496   0.000000
     3  H    1.091411   1.759171   0.000000
     4  C    1.502299   2.124398   2.125295   0.000000
     5  H    2.217778   2.775490   3.033205   1.074332   0.000000
     6  H    2.262361   2.737836   2.496248   1.078687   1.869097
     7  O    1.396784   2.083340   2.037633   2.362814   2.550649
     8  H    2.174678   3.243123   2.366385   2.204644   2.330834
     9  O    2.490628   3.548100   2.537756   2.009579   2.241125
    10  H    3.274957   4.290086   3.468869   2.518054   2.367330
    11  Si   3.254147   2.805866   4.297342   3.090963   2.755795
    12  O    3.746085   2.890438   4.637310   4.107957   4.098606
    13  H    4.467866   3.541190   5.291547   4.715536   4.748229
    14  O    2.881672   2.866405   3.962859   2.889469   2.326060
    15  H    1.901011   2.258552   2.832255   2.499301   2.330180
    16  O    2.752464   2.392903   3.577628   2.137906   2.222700
    17  H    3.587937   3.322387   4.350441   2.672869   2.599028
    18  O    4.773154   4.379702   5.798878   4.248388   3.695995
    19  H    5.297787   5.007613   6.363048   4.775655   4.060162
                    6          7          8          9         10
     6  H    0.000000
     7  O    3.339443   0.000000
     8  H    2.908755   1.790016   0.000000
     9  O    2.376120   2.589975   0.987758   0.000000
    10  H    2.844982   3.208803   1.561814   0.958925   0.000000
    11  Si   3.783575   3.514834   4.523848   4.792439   5.056054
    12  O    4.735355   4.069588   5.468772   5.844491   6.294151
    13  H    5.188456   4.948519   6.277936   6.568445   7.015508
    14  O    3.867039   2.531652   3.538103   4.027889   4.212535
    15  H    3.568028   1.019887   2.387482   3.117032   3.529365
    16  O    2.396379   3.626650   4.185341   4.124444   4.476456
    17  H    2.667297   4.454226   4.773855   4.566065   4.776401
    18  O    4.740653   5.037319   5.787880   5.920290   5.981346
    19  H    5.361744   5.336788   6.049632   6.245287   6.198112
                   11         12         13         14         15
    11  Si   0.000000
    12  O    1.642408   0.000000
    13  H    2.240331   0.953919   0.000000
    14  O    1.554141   2.685031   3.529923   0.000000
    15  H    2.743883   3.443360   4.360327   1.559798   0.000000
    16  O    1.736198   2.660810   2.965453   2.687323   3.260785
    17  H    2.273622   3.309196   3.427639   3.306798   4.058012
    18  O    1.653768   2.690920   2.805596   2.753057   4.204554
    19  H    2.226713   3.284381   3.490742   2.865415   4.414751
                   16         17         18         19
    16  O    0.000000
    17  H    0.957202   0.000000
    18  O    2.592176   2.490482   0.000000
    19  H    3.394044   3.305140   0.954259   0.000000
 Symmetry turned off by external request.
 Stoichiometry    C2H10O6Si
 Framework group  C1[X(C2H10O6Si)]
 Deg. of freedom    51
 Full point group                 C1      NOp   1
 Rotational constants (GHZ):           2.3941462           0.7629715           0.7182235
 Standard basis: def2TZVPP (5D, 7F)
   430 basis functions,   647 primitive gaussians,   486 cartesian basis functions
    42 alpha electrons       42 beta electrons
       nuclear repulsion energy       641.5359690892 Hartrees.
 NAtoms=   19 NActive=   19 NUniq=   19 SFac= 1.00D+00 NAtFMM=   60 NAOKFM=F Big=F
 Integral buffers will be    131072 words long.
 Raffenetti 2 integral format.
 Two-electron integral symmetry is turned off.
 Nuclear repulsion after empirical dispersion term =      641.5254285144 Hartrees.
 One-electron integrals computed using PRISM.
   1 Symmetry operations used in ECPInt.
 ECPInt:  NShTT=   13203 NPrTT=   36019 LenC2=   12505 LenP2D=   26752.
 LDataN:  DoStor=T MaxTD1= 6 Len=  172
 NBasis=   430 RedAO= T EigKep=  1.69D-04  NBF=   430
 NBsUse=   430 1.00D-06 EigRej= -1.00D+00 NBFU=   430
 ExpMin= 7.01D-02 ExpMax= 4.48D+04 ExpMxC= 1.53D+03 IAcc=3 IRadAn=         5 AccDes= 0.00D+00
 Harris functional with IExCor= 4639 and IRadAn=       5 diagonalized for initial guess.
 HarFok:  IExCor= 4639 AccDes= 0.00D+00 IRadAn=         5 IDoV= 1 UseB2=F ITyADJ=14
 ICtDFT=  3500011 ScaDFX=  1.000000  1.000000  1.000000  1.000000
 FoFCou: FMM=F IPFlag=           0 FMFlag=      100000 FMFlg1=           0
         NFxFlg=           0 DoJE=T BraDBF=F KetDBF=T FulRan=T
         wScrn=  0.000000 ICntrl=       500 IOpCl=  0 I1Cent=   200000004 NGrid=           0
         NMat0=    1 NMatS0=      1 NMatT0=    0 NMatD0=    1 NMtDS0=    0 NMtDT0=    0
 Symmetry not used in FoFCou.
 Requested convergence on RMS density matrix=1.00D-08 within 128 cycles.
 Requested convergence on MAX density matrix=1.00D-06.
 Requested convergence on             energy=1.00D-06.
 No special actions if energy rises.
 Integral accuracy reduced to 1.0D-05 until final iterations.
 Initial convergence to 1.0D-05 achieved.  Increase integral accuracy.
 SCF Done:  E(RwB97XD) =  -823.262022716     A.U. after   14 cycles
            NFock= 14  Conv=0.88D-08     -V/T= 2.0034
 DoSCS=F DFT=T ScalE2(SS,OS)=  1.000000  1.000000
 Range of M.O.s used for correlation:     1   430
 NBasis=   430 NAE=    42 NBE=    42 NFC=     0 NFV=     0
 NROrb=    430 NOA=    42 NOB=    42 NVA=   388 NVB=   388

 **** Warning!!: The largest alpha MO coefficient is  0.13376654D+02

   1 Symmetry operations used in ECPInt.
 ECPInt:  NShTT=   13203 NPrTT=   36019 LenC2=   12505 LenP2D=   26752.
 LDataN:  DoStor=T MaxTD1= 7 Len=  274
 Number of processors reduced to  12 by ecpmxn.
 Symmetrizing basis deriv contribution to polar:
 IMax=3 JMax=2 DiffMx= 0.00D+00
 G2DrvN: will do    20 centers at a time, making    1 passes.
 Calling FoFCou, ICntrl=  3107 FMM=F I1Cent=   0 AccDes= 0.00D+00.
 End of G2Drv F.D. properties file   721 does not exist.
 End of G2Drv F.D. properties file   722 does not exist.
 End of G2Drv F.D. properties file   788 does not exist.
          IDoAtm=1111111111111111111
          Differentiating once with respect to nuclear coordinates.
 CalDSu exits because no D1Ps are significant.
          There are    60 degrees of freedom in the 1st order CPHF.  IDoFFX=6 NUNeed=     0.
     54 vectors produced by pass  0 Test12= 2.72D-14 1.67D-09 XBig12= 7.83D-02 7.62D-02.
 AX will form    54 AO Fock derivatives at one time.
     54 vectors produced by pass  1 Test12= 2.72D-14 1.67D-09 XBig12= 1.52D-02 1.75D-02.
     54 vectors produced by pass  2 Test12= 2.72D-14 1.67D-09 XBig12= 3.30D-04 2.65D-03.
     54 vectors produced by pass  3 Test12= 2.72D-14 1.67D-09 XBig12= 3.54D-06 2.25D-04.
     54 vectors produced by pass  4 Test12= 2.72D-14 1.67D-09 XBig12= 3.67D-08 2.66D-05.
     54 vectors produced by pass  5 Test12= 2.72D-14 1.67D-09 XBig12= 3.29D-10 2.17D-06.
     54 vectors produced by pass  6 Test12= 2.72D-14 1.67D-09 XBig12= 2.31D-12 1.65D-07.
     20 vectors produced by pass  7 Test12= 2.72D-14 1.67D-09 XBig12= 1.65D-14 1.27D-08.
 InvSVY:  IOpt=1 It=  1 EMax= 2.22D-16
 Solved reduced A of dimension   398 with    60 vectors.
 End of Minotr F.D. properties file   721 does not exist.
 End of Minotr F.D. properties file   722 does not exist.
 End of Minotr F.D. properties file   788 does not exist.

 **********************************************************************

            Population analysis using the SCF Density.

 **********************************************************************

 Alpha  occ. eigenvalues --  -66.26258 -19.31997 -19.25946 -19.24299 -19.22992
 Alpha  occ. eigenvalues --  -19.22164 -19.14524 -10.41098 -10.35510  -5.38091
 Alpha  occ. eigenvalues --   -3.72726  -3.72601  -3.72377  -1.18442  -1.12807
 Alpha  occ. eigenvalues --   -1.11782  -1.08578  -1.07303  -0.96942  -0.88423
 Alpha  occ. eigenvalues --   -0.74512  -0.69327  -0.64170  -0.62064  -0.60320
 Alpha  occ. eigenvalues --   -0.59277  -0.57870  -0.55862  -0.54356  -0.51656
 Alpha  occ. eigenvalues --   -0.49155  -0.47600  -0.46985  -0.45305  -0.44079
 Alpha  occ. eigenvalues --   -0.42294  -0.39977  -0.38758  -0.38422  -0.37744
 Alpha  occ. eigenvalues --   -0.33408  -0.33131
 Alpha virt. eigenvalues --    0.00269   0.08029   0.10486   0.12904   0.13600
 Alpha virt. eigenvalues --    0.15165   0.16145   0.17272   0.18293   0.19858
 Alpha virt. eigenvalues --    0.20828   0.22410   0.23945   0.26112   0.27662
 Alpha virt. eigenvalues --    0.28250   0.29663   0.31528   0.32449   0.33273
 Alpha virt. eigenvalues --    0.33743   0.35374   0.37967   0.40469   0.40788
 Alpha virt. eigenvalues --    0.41500   0.41850   0.43847   0.44316   0.44713
 Alpha virt. eigenvalues --    0.46110   0.47053   0.47699   0.48768   0.49340
 Alpha virt. eigenvalues --    0.50061   0.52399   0.53075   0.53759   0.54399
 Alpha virt. eigenvalues --    0.54652   0.55911   0.57069   0.57407   0.58798
 Alpha virt. eigenvalues --    0.59421   0.61041   0.61973   0.63181   0.63678
 Alpha virt. eigenvalues --    0.64845   0.66520   0.67025   0.69219   0.71879
 Alpha virt. eigenvalues --    0.72979   0.73426   0.74704   0.76462   0.77141
 Alpha virt. eigenvalues --    0.78580   0.80696   0.82953   0.84229   0.85634
 Alpha virt. eigenvalues --    0.86864   0.87902   0.88790   0.89185   0.90481
 Alpha virt. eigenvalues --    0.94041   0.94291   0.96337   0.96930   0.97563
 Alpha virt. eigenvalues --    0.99988   1.00352   1.02371   1.03900   1.04754
 Alpha virt. eigenvalues --    1.06385   1.07245   1.08737   1.10986   1.12702
 Alpha virt. eigenvalues --    1.13674   1.14793   1.16906   1.18432   1.19000
 Alpha virt. eigenvalues --    1.20435   1.22795   1.23435   1.25511   1.27173
 Alpha virt. eigenvalues --    1.28776   1.29788   1.31106   1.33110   1.35399
 Alpha virt. eigenvalues --    1.35579   1.37342   1.37844   1.39145   1.40167
 Alpha virt. eigenvalues --    1.43042   1.43605   1.44577   1.46843   1.47589
 Alpha virt. eigenvalues --    1.48563   1.51348   1.53066   1.53238   1.55620
 Alpha virt. eigenvalues --    1.56457   1.59373   1.60320   1.61633   1.63866
 Alpha virt. eigenvalues --    1.68036   1.70129   1.72335   1.74370   1.79036
 Alpha virt. eigenvalues --    1.81114   1.83246   1.85081   1.85289   1.88590
 Alpha virt. eigenvalues --    1.89050   1.91234   1.92125   1.94468   1.98829
 Alpha virt. eigenvalues --    1.99842   2.01778   2.03590   2.04824   2.06567
 Alpha virt. eigenvalues --    2.08771   2.11756   2.12633   2.13451   2.17217
 Alpha virt. eigenvalues --    2.17798   2.18281   2.20230   2.22352   2.23836
 Alpha virt. eigenvalues --    2.24787   2.26876   2.28581   2.31994   2.33006
 Alpha virt. eigenvalues --    2.34311   2.34908   2.39593   2.41887   2.44481
 Alpha virt. eigenvalues --    2.46931   2.53549   2.56673   2.60137   2.64098
 Alpha virt. eigenvalues --    2.66290   2.67854   2.70133   2.73716   2.75592
 Alpha virt. eigenvalues --    2.78771   2.79851   2.82475   2.84850   2.86757
 Alpha virt. eigenvalues --    2.88534   2.91163   2.92405   2.94448   2.95503
 Alpha virt. eigenvalues --    2.98946   3.00500   3.03043   3.04339   3.05648
 Alpha virt. eigenvalues --    3.06610   3.08448   3.10455   3.10832   3.14099
 Alpha virt. eigenvalues --    3.15666   3.17406   3.19434   3.22140   3.26407
 Alpha virt. eigenvalues --    3.27998   3.28861   3.31629   3.31911   3.34089
 Alpha virt. eigenvalues --    3.35343   3.35848   3.36396   3.37993   3.40018
 Alpha virt. eigenvalues --    3.41346   3.41993   3.42972   3.43210   3.45303
 Alpha virt. eigenvalues --    3.46385   3.47098   3.47924   3.49325   3.51278
 Alpha virt. eigenvalues --    3.52995   3.55002   3.57513   3.59403   3.61170
 Alpha virt. eigenvalues --    3.61429   3.65148   3.66794   3.69153   3.70253
 Alpha virt. eigenvalues --    3.73856   3.75181   3.76515   3.78069   3.80336
 Alpha virt. eigenvalues --    3.82034   3.83492   3.84583   3.85878   3.88140
 Alpha virt. eigenvalues --    3.91344   3.93168   3.95185   3.96563   3.97298
 Alpha virt. eigenvalues --    3.98861   4.00571   4.05661   4.06914   4.07355
 Alpha virt. eigenvalues --    4.11323   4.11755   4.11846   4.14404   4.14893
 Alpha virt. eigenvalues --    4.16191   4.17673   4.17926   4.18651   4.20067
 Alpha virt. eigenvalues --    4.22849   4.23798   4.24812   4.26427   4.26649
 Alpha virt. eigenvalues --    4.30615   4.31748   4.35444   4.37424   4.38032
 Alpha virt. eigenvalues --    4.39483   4.42556   4.43827   4.47574   4.49287
 Alpha virt. eigenvalues --    4.56896   4.58847   4.62507   4.67462   4.68048
 Alpha virt. eigenvalues --    4.71918   4.75434   4.77072   4.80733   4.82898
 Alpha virt. eigenvalues --    4.84971   4.87210   4.88446   4.95090   4.96095
 Alpha virt. eigenvalues --    4.98909   5.00373   5.02906   5.05219   5.06585
 Alpha virt. eigenvalues --    5.08231   5.09670   5.10863   5.14123   5.16854
 Alpha virt. eigenvalues --    5.21832   5.27383   5.29441   5.32849   5.33342
 Alpha virt. eigenvalues --    5.34282   5.36662   5.39100   5.39835   5.41038
 Alpha virt. eigenvalues --    5.44539   5.46086   5.48504   5.51624   5.51996
 Alpha virt. eigenvalues --    5.53693   5.55016   5.56331   5.61116   5.66024
 Alpha virt. eigenvalues --    5.67415   5.67923   5.72995   5.74305   5.77464
 Alpha virt. eigenvalues --    5.79077   5.81133   5.87351   5.95039   6.00209
 Alpha virt. eigenvalues --    6.07504   6.09192   6.15583   6.21715   6.43790
 Alpha virt. eigenvalues --    6.47458   6.52760   6.54243   6.58069   6.58830
 Alpha virt. eigenvalues --    6.61773   6.63214   6.64902   6.65846   6.66870
 Alpha virt. eigenvalues --    6.68097   6.68816   6.70757   6.71601   6.71739
 Alpha virt. eigenvalues --    6.73268   6.74909   6.75312   6.77156   6.78166
 Alpha virt. eigenvalues --    6.81433   6.82871   6.83877   6.85701   6.87735
 Alpha virt. eigenvalues --    6.89732   6.92207   6.93671   6.99746   7.03143
 Alpha virt. eigenvalues --    7.06596   7.08281   7.15340   7.21716   7.27511
 Alpha virt. eigenvalues --    7.29738   7.33802   7.36087   7.37696   7.40578
 Alpha virt. eigenvalues --    7.43495   7.46697   7.50986   7.57369   7.67235
 Alpha virt. eigenvalues --    7.68666   7.71813   7.79010   7.84874  12.31507
 Alpha virt. eigenvalues --   23.40939  23.53423  43.84853  43.87899  43.94676
 Alpha virt. eigenvalues --   43.97255  44.05634  44.31461
          Condensed to atoms (all electrons):
               1          2          3          4          5          6
     1  C    4.740605   0.404131   0.414152   0.252482  -0.028748  -0.020704
     2  H    0.404131   0.560511  -0.024196  -0.034871   0.000599   0.004053
     3  H    0.414152  -0.024196   0.569582  -0.032144   0.002891  -0.003161
     4  C    0.252482  -0.034871  -0.032144   4.995005   0.423418   0.372591
     5  H   -0.028748   0.000599   0.002891   0.423418   0.452000  -0.009230
     6  H   -0.020704   0.004053  -0.003161   0.372591  -0.009230   0.492778
     7  O    0.235572  -0.022077  -0.029901  -0.049823  -0.009247   0.006101
     8  H   -0.028139   0.002786  -0.004892  -0.013427   0.000753   0.003633
     9  O    0.013854   0.000847  -0.003361   0.048175  -0.017023  -0.004168
    10  H   -0.004218  -0.000198   0.000525   0.000415  -0.000590   0.000727
    11  Si   0.017832  -0.007943   0.000582  -0.018421  -0.002932   0.002038
    12  O   -0.010186   0.009330  -0.000056   0.001448  -0.000086   0.000018
    13  H    0.000394  -0.000556  -0.000003  -0.000009  -0.000084  -0.000007
    14  O    0.019977  -0.008988   0.000132  -0.016098   0.020872   0.002772
    15  H   -0.034549  -0.005240   0.004281   0.008473   0.000807  -0.000112
    16  O   -0.013550  -0.001186   0.000399   0.047439  -0.019387  -0.006338
    17  H    0.001681   0.000615  -0.000102  -0.002864   0.000681  -0.001275
    18  O   -0.000387   0.000136  -0.000006   0.000329  -0.001007  -0.000068
    19  H   -0.000038  -0.000014   0.000000   0.000087  -0.000031  -0.000007
               7          8          9         10         11         12
     1  C    0.235572  -0.028139   0.013854  -0.004218   0.017832  -0.010186
     2  H   -0.022077   0.002786   0.000847  -0.000198  -0.007943   0.009330
     3  H   -0.029901  -0.004892  -0.003361   0.000525   0.000582  -0.000056
     4  C   -0.049823  -0.013427   0.048175   0.000415  -0.018421   0.001448
     5  H   -0.009247   0.000753  -0.017023  -0.000590  -0.002932  -0.000086
     6  H    0.006101   0.003633  -0.004168   0.000727   0.002038   0.000018
     7  O    8.035948   0.081346  -0.051047   0.001810  -0.000555   0.000229
     8  H    0.081346   0.431158   0.306433  -0.011854  -0.000389  -0.000001
     9  O   -0.051047   0.306433   7.643336   0.321711  -0.000374   0.000000
    10  H    0.001810  -0.011854   0.321711   0.500256  -0.000111  -0.000000
    11  Si  -0.000555  -0.000389  -0.000374  -0.000111  11.527905   0.449318
    12  O    0.000229  -0.000001   0.000000  -0.000000   0.449318   7.704400
    13  H    0.000011  -0.000000  -0.000000  -0.000000  -0.016700   0.317730
    14  O   -0.073050   0.001257  -0.000330  -0.000060   0.606444  -0.027998
    15  H    0.309968  -0.001975   0.001285   0.000372  -0.010848   0.000030
    16  O    0.001916  -0.000287   0.001981  -0.000091   0.291791  -0.037067
    17  H   -0.000080   0.000022  -0.000043  -0.000009  -0.014602   0.001266
    18  O   -0.000034   0.000001   0.000001   0.000000   0.436082  -0.028347
    19  H    0.000004  -0.000000  -0.000000   0.000000  -0.023316  -0.000430
              13         14         15         16         17         18
     1  C    0.000394   0.019977  -0.034549  -0.013550   0.001681  -0.000387
     2  H   -0.000556  -0.008988  -0.005240  -0.001186   0.000615   0.000136
     3  H   -0.000003   0.000132   0.004281   0.000399  -0.000102  -0.000006
     4  C   -0.000009  -0.016098   0.008473   0.047439  -0.002864   0.000329
     5  H   -0.000084   0.020872   0.000807  -0.019387   0.000681  -0.001007
     6  H   -0.000007   0.002772  -0.000112  -0.006338  -0.001275  -0.000068
     7  O    0.000011  -0.073050   0.309968   0.001916  -0.000080  -0.000034
     8  H   -0.000000   0.001257  -0.001975  -0.000287   0.000022   0.000001
     9  O   -0.000000  -0.000330   0.001285   0.001981  -0.000043   0.000001
    10  H   -0.000000  -0.000060   0.000372  -0.000091  -0.000009   0.000000
    11  Si  -0.016700   0.606444  -0.010848   0.291791  -0.014602   0.436082
    12  O    0.317730  -0.027998   0.000030  -0.037067   0.001266  -0.028347
    13  H    0.533897   0.001434  -0.000018   0.000653  -0.000267  -0.001732
    14  O    0.001434   8.117861   0.108131  -0.034844   0.000464  -0.027841
    15  H   -0.000018   0.108131   0.348862   0.001244  -0.000011  -0.000009
    16  O    0.000653  -0.034844   0.001244   7.885367   0.324847  -0.034342
    17  H   -0.000267   0.000464  -0.000011   0.324847   0.503461   0.004476
    18  O   -0.001732  -0.027841  -0.000009  -0.034342   0.004476   7.762118
    19  H    0.000162   0.000284  -0.000037   0.001573  -0.000256   0.338714
              19
     1  C   -0.000038
     2  H   -0.000014
     3  H    0.000000
     4  C    0.000087
     5  H   -0.000031
     6  H   -0.000007
     7  O    0.000004
     8  H   -0.000000
     9  O   -0.000000
    10  H    0.000000
    11  Si  -0.023316
    12  O   -0.000430
    13  H    0.000162
    14  O    0.000284
    15  H   -0.000037
    16  O    0.001573
    17  H   -0.000256
    18  O    0.338714
    19  H    0.494110
 Mulliken charges:
               1
     1  C    0.039837
     2  H    0.122263
     3  H    0.105278
     4  C    0.017795
     5  H    0.186341
     6  H    0.160359
     7  O   -0.437091
     8  H    0.233573
     9  O   -0.261276
    10  H    0.191314
    11  Si   0.764198
    12  O   -0.379600
    13  H    0.165094
    14  O   -0.690418
    15  H    0.269346
    16  O   -0.410119
    17  H    0.181996
    18  O   -0.448084
    19  H    0.189195
 Sum of Mulliken charges =  -0.00000
 Mulliken charges with hydrogens summed into heavy atoms:
               1
     1  C    0.267379
     4  C    0.364496
     7  O   -0.167746
     9  O    0.163611
    11  Si   0.764198
    12  O   -0.214506
    14  O   -0.690418
    16  O   -0.228123
    18  O   -0.258890
 APT charges:
               1
     1  C   -0.553836
     2  H    0.170694
     3  H    0.570208
     4  C   -0.390843
     5  H    0.216631
     6  H    0.554476
     7  O   -0.348030
     8  H    0.155208
     9  O   -0.489831
    10  H    0.540807
    11  Si   0.451352
    12  O   -0.782770
    13  H    0.697089
    14  O   -0.729622
    15  H    0.172451
    16  O   -0.718818
    17  H    0.550502
    18  O   -0.700532
    19  H    0.634865
 Sum of APT charges =  -0.00000
 APT charges with hydrogens summed into heavy atoms:
               1
     1  C    0.187066
     4  C    0.380263
     7  O   -0.175579
     9  O    0.206184
    11  Si   0.451352
    12  O   -0.085682
    14  O   -0.729622
    16  O   -0.168315
    18  O   -0.065667
 Electronic spatial extent (au):  <R**2>=           1669.7111
 Charge=             -0.0000 electrons
 Dipole moment (field-independent basis, Debye):
    X=              3.0251    Y=             -5.0684    Z=              1.6578  Tot=              6.1309
 Quadrupole moment (field-independent basis, Debye-Ang):
   XX=            -52.2754   YY=            -59.9807   ZZ=            -56.8365
   XY=             -5.1169   XZ=             -2.5658   YZ=              3.9696
 Traceless Quadrupole moment (field-independent basis, Debye-Ang):
   XX=              4.0888   YY=             -3.6165   ZZ=             -0.4723
   XY=             -5.1169   XZ=             -2.5658   YZ=              3.9696
 Octapole moment (field-independent basis, Debye-Ang**2):
  XXX=             -2.8720  YYY=            -25.9378  ZZZ=             -1.3221  XYY=              9.4223
  XXY=            -11.8003  XXZ=            -14.5476  XZZ=             -1.2735  YZZ=             -8.9935
  YYZ=              1.8967  XYZ=              4.4071
 Hexadecapole moment (field-independent basis, Debye-Ang**3):
 XXXX=          -1314.3773 YYYY=           -340.8642 ZZZZ=           -258.4278 XXXY=            -58.1124
 XXXZ=            -64.2395 YYYX=            -19.9988 YYYZ=             -5.2060 ZZZX=             -6.9904
 ZZZY=             15.2758 XXYY=           -281.8707 XXZZ=           -184.7242 YYZZ=            -85.1522
 XXYZ=             45.9196 YYXZ=            -10.0158 ZZXY=             -1.9052
 N-N= 6.415254285144D+02 E-N=-3.233145350009D+03  KE= 8.204633211397D+02
  Exact polarizability:       0.000       0.000       0.000       0.000       0.000       0.000
 Approx polarizability:      91.429       1.561      75.887      -5.652      -0.653      76.667
   1 Symmetry operations used in ECPInt.
 ECPInt:  NShTT=   13203 NPrTT=   36019 LenC2=   12505 LenP2D=   26752.
 LDataN:  DoStor=T MaxTD1= 8 Len=  415
 Calling FoFJK, ICntrl=    100127 FMM=F ISym2X=0 I1Cent= 0 IOpClX= 0 NMat=1 NMatS=1 NMatT=0.
 -------------------------------------------------------------------
 Center     Atomic                   Forces (Hartrees/Bohr)
 Number     Number              X              Y              Z
 -------------------------------------------------------------------
      1        6          -0.000000101    0.000003071   -0.000003253
      2        1          -0.000000372    0.000003442   -0.000003793
      3        1           0.000000175    0.000005794   -0.000004753
      4        6           0.000001908    0.000002307    0.000000638
      5        1           0.000000106    0.000000026    0.000001816
      6        1           0.000002848    0.000004582    0.000002237
      7        8          -0.000000983    0.000000308   -0.000004418
      8        1          -0.000001115    0.000000877   -0.000003321
      9        8           0.000000186    0.000002334   -0.000001394
     10        1           0.000000312    0.000000462    0.000000384
     11       14          -0.000000734   -0.000002382    0.000002222
     12        8          -0.000000670   -0.000001765   -0.000001239
     13        1          -0.000000113   -0.000000802    0.000000248
     14        8          -0.000002164   -0.000005076   -0.000000634
     15        1          -0.000003557   -0.000001998   -0.000004551
     16        8           0.000001788    0.000001225    0.000002630
     17        1           0.000002847    0.000000862    0.000006257
     18        8           0.000000285   -0.000005303    0.000005083
     19        1          -0.000000646   -0.000007964    0.000005841
 -------------------------------------------------------------------
 Cartesian Forces:  Max     0.000007964 RMS     0.000002925
 IRC-IRC-IRC-IRC-IRC-IRC-IRC-IRC-IRC-IRC-IRC-IRC-IRC-IRC-IRC-IRC-IRC-IRC
          ******** Start new reaction path calculation ********
 Supplied step size of   0.0200 bohr.
    Integration on MW PES will use step size of   0.0490 sqrt(amu)*bohr.
 Point Number:   0          Path Number:   1
 Calculating another point on the path.
 IRC-IRC-IRC-IRC-IRC-IRC-IRC-IRC-IRC-IRC-IRC-IRC-IRC-IRC-IRC-IRC-IRC-IRC
                          Input orientation:                          
 ---------------------------------------------------------------------
 Center     Atomic      Atomic             Coordinates (Angstroms)
 Number     Number       Type             X           Y           Z
 ---------------------------------------------------------------------
      1          6           0        1.650225    0.680019    0.787985
      2          1           0        0.762456    1.028862    1.320454
      3          1           0        2.509012    0.853496    1.438854
      4          6           0        1.517990   -0.794661    0.534077
      5          1           0        1.114894   -1.106176   -0.411905
      6          1           0        1.752147   -1.522467    1.295047
      7          8           0        1.851860    1.335650   -0.428888
      8          1           0        3.094906    0.084239   -0.721220
      9          8           0        3.329717   -0.786153   -0.316185
     10          1           0        3.374739   -1.420996   -1.033589
     11         14           0       -1.391153    0.007664   -0.155673
     12          8           0       -2.054236    1.236618    0.709261
     13          1           0       -2.776980    1.011748    1.289811
     14          8           0       -0.381338    0.466887   -1.244580
     15          1           0        0.976024    1.162139   -0.922944
     16          8           0       -0.562754   -0.941775    1.037160
     17          1           0       -0.893094   -1.839454    1.070788
     18          8           0       -2.575689   -1.061685   -0.590108
     19          1           0       -2.791175   -1.059540   -1.519700
 ---------------------------------------------------------------------
                    Distance matrix (angstroms):
                    1          2          3          4          5
     1  C    0.000000
     2  H    1.092404   0.000000
     3  H    1.091440   1.759326   0.000000
     4  C    1.502211   2.124725   2.125363   0.000000
     5  H    2.217388   2.771942   3.034665   1.074435   0.000000
     6  H    2.262399   2.736679   2.497745   1.078706   1.868977
     7  O    1.396885   2.083535   2.037838   2.361567   2.550671
     8  H    2.172500   3.240535   2.366632   2.198841   2.330925
     9  O    2.487880   3.544531   2.538143   2.001343   2.239870
    10  H    3.272056   4.285714   3.469261   2.509460   2.364847
    11  Si   3.254617   2.803539   4.297585   3.095577   2.754372
    12  O    3.746869   2.889719   4.637060   4.113099   4.097448
    13  H    4.467887   3.539610   5.290460   4.720277   4.746380
    14  O    2.881665   2.864172   3.962878   2.891811   2.325206
    15  H    1.901121   2.257478   2.832561   2.499141   2.329313
    16  O    2.754919   2.391620   3.580517   2.145747   2.222908
    17  H    3.591127   3.321207   4.354513   2.681972   2.601555
    18  O    4.773994   4.377653   5.799896   4.253622   3.695150
    19  H    5.298822   5.005616   6.364333   4.780907   4.060389
                    6          7          8          9         10
     6  H    0.000000
     7  O    3.339271   0.000000
     8  H    2.906861   1.787918   0.000000
     9  O    2.372120   2.588207   0.988318   0.000000
    10  H    2.840008   3.206856   1.562567   0.959021   0.000000
    11  Si   3.785000   3.515014   4.522216   4.789836   5.052280
    12  O    4.737537   4.069739   5.466984   5.842097   6.290804
    13  H    5.189920   4.948232   6.275632   6.565320   7.011425
    14  O    3.867686   2.531259   3.536184   4.025414   4.209125
    15  H    3.567767   1.020434   2.385837   3.115103   3.526849
    16  O    2.400516   3.628543   4.186058   4.123966   4.474540
    17  H    2.673588   4.457027   4.776613   4.567852   4.776809
    18  O    4.743026   5.037499   5.786707   5.918173   5.977740
    19  H    5.364595   5.337095   6.049112   6.244078   6.195600
                   11         12         13         14         15
    11  Si   0.000000
    12  O    1.642595   0.000000
    13  H    2.240117   0.953920   0.000000
    14  O    1.554456   2.684878   3.529747   0.000000
    15  H    2.743182   3.442690   4.359351   1.558607   0.000000
    16  O    1.735089   2.660345   2.963593   2.687672   3.261334
    17  H    2.272469   3.307745   3.424377   3.307875   4.059326
    18  O    1.653894   2.691184   2.806018   2.753188   4.203669
    19  H    2.227006   3.283853   3.490529   2.865831   4.414042
                   16         17         18         19
    16  O    0.000000
    17  H    0.957122   0.000000
    18  O    2.591195   2.488901   0.000000
    19  H    3.393710   3.304786   0.954243   0.000000
 Symmetry turned off by external request.
 Stoichiometry    C2H10O6Si
 Framework group  C1[X(C2H10O6Si)]
 Deg. of freedom    51
 Full point group                 C1      NOp   1
 Rotational constants (GHZ):           2.3945108           0.7630079           0.7182188
 Standard basis: def2TZVPP (5D, 7F)
   430 basis functions,   647 primitive gaussians,   486 cartesian basis functions
    42 alpha electrons       42 beta electrons
       nuclear repulsion energy       641.5598260414 Hartrees.
 NAtoms=   19 NActive=   19 NUniq=   19 SFac= 1.00D+00 NAtFMM=   60 NAOKFM=F Big=F
 Integral buffers will be    131072 words long.
 Raffenetti 2 integral format.
 Two-electron integral symmetry is turned off.
 Nuclear repulsion after empirical dispersion term =      641.5492869568 Hartrees.
 One-electron integrals computed using PRISM.
   1 Symmetry operations used in ECPInt.
 ECPInt:  NShTT=   13203 NPrTT=   36019 LenC2=   12503 LenP2D=   26753.
 LDataN:  DoStor=T MaxTD1= 6 Len=  172
 NBasis=   430 RedAO= T EigKep=  1.69D-04  NBF=   430
 NBsUse=   430 1.00D-06 EigRej= -1.00D+00 NBFU=   430
 Initial guess from the checkpoint file:  "IRCSiAttack_100step_maxcycles100_ReverseOnly.chk"
 B after Tr=     0.079111   -0.031324    0.020063
         Rot=    1.000000    0.000005   -0.000001    0.000005 Ang=   0.00 deg.
 ExpMin= 7.01D-02 ExpMax= 4.48D+04 ExpMxC= 1.53D+03 IAcc=3 IRadAn=         5 AccDes= 0.00D+00
 Harris functional with IExCor= 4639 and IRadAn=       5 diagonalized for initial guess.
 HarFok:  IExCor= 4639 AccDes= 0.00D+00 IRadAn=         5 IDoV= 1 UseB2=F ITyADJ=14
 ICtDFT=  3500011 ScaDFX=  1.000000  1.000000  1.000000  1.000000
 FoFCou: FMM=F IPFlag=           0 FMFlag=      100000 FMFlg1=           0
         NFxFlg=           0 DoJE=T BraDBF=F KetDBF=T FulRan=T
         wScrn=  0.000000 ICntrl=       500 IOpCl=  0 I1Cent=   200000004 NGrid=           0
         NMat0=    1 NMatS0=      1 NMatT0=    0 NMatD0=    1 NMtDS0=    0 NMtDT0=    0
 Symmetry not used in FoFCou.
 Requested convergence on RMS density matrix=1.00D-08 within 128 cycles.
 Requested convergence on MAX density matrix=1.00D-06.
 Requested convergence on             energy=1.00D-06.
 No special actions if energy rises.
 Integral accuracy reduced to 1.0D-05 until final iterations.
 Initial convergence to 1.0D-05 achieved.  Increase integral accuracy.
 SCF Done:  E(RwB97XD) =  -823.262030523     A.U. after   10 cycles
            NFock= 10  Conv=0.32D-08     -V/T= 2.0034
 DoSCS=F DFT=T ScalE2(SS,OS)=  1.000000  1.000000
 Range of M.O.s used for correlation:     1   430
 NBasis=   430 NAE=    42 NBE=    42 NFC=     0 NFV=     0
 NROrb=    430 NOA=    42 NOB=    42 NVA=   388 NVB=   388

 **** Warning!!: The largest alpha MO coefficient is  0.13248012D+02

 Symmetrizing basis deriv contribution to polar:
 IMax=3 JMax=2 DiffMx= 0.00D+00
   1 Symmetry operations used in ECPInt.
 ECPInt:  NShTT=   13203 NPrTT=   36019 LenC2=   12503 LenP2D=   26753.
 LDataN:  DoStor=T MaxTD1= 7 Len=  274
 Calling FoFJK, ICntrl=      2127 FMM=F ISym2X=0 I1Cent= 0 IOpClX= 0 NMat=1 NMatS=1 NMatT=0.
 -------------------------------------------------------------------
 Center     Atomic                   Forces (Hartrees/Bohr)
 Number     Number              X              Y              Z
 -------------------------------------------------------------------
      1        6           0.000097739    0.000007384   -0.000010892
      2        1          -0.000007775   -0.000028798   -0.000018883
      3        1          -0.000005282    0.000034463    0.000001730
      4        6           0.000820744   -0.000014465   -0.000245761
      5        1          -0.000009462    0.000009318    0.000029778
      6        1           0.000032767    0.000006752   -0.000006292
      7        8           0.000020369   -0.000004134   -0.000068281
      8        1          -0.000021941    0.000019837    0.000000824
      9        8          -0.000468334    0.000091273    0.000169570
     10        1          -0.000044481   -0.000001032    0.000016292
     11       14           0.000034512   -0.000125292    0.000141315
     12        8          -0.000014144    0.000057864   -0.000064453
     13        1           0.000009139   -0.000001821    0.000005711
     14        8           0.000055798   -0.000000591    0.000059575
     15        1          -0.000011952   -0.000011322   -0.000003815
     16        8          -0.000395750   -0.000076238    0.000059241
     17        1          -0.000046783    0.000010503    0.000022846
     18        8          -0.000033489    0.000017928   -0.000091706
     19        1          -0.000011677    0.000008369    0.000003202
 -------------------------------------------------------------------
 Cartesian Forces:  Max     0.000820744 RMS     0.000147716
 IRC-IRC-IRC-IRC-IRC-IRC-IRC-IRC-IRC-IRC-IRC-IRC-IRC-IRC-IRC-IRC-IRC-IRC
 Pt  1 Step number   1 out of a maximum of 100
 Modified Bulirsch-Stoer Extrapolation Cycles:
    EPS =    0.000010000000000
      PEZero:  N= 2 I= 1 D=  1.28D-04 Err=  2.87D-04
      PEZero:  N= 3 I= 2 D=  1.28D-04 Err=  1.91D-04
      PEZero:  N= 3 I= 1 D=  2.55D-04 Err=  2.49D-07
 Maximum DWI energy   std dev =  0.000000013 at pt    45
 Maximum DWI gradient std dev =  0.047999757 at pt     2
 CORRECTOR INTEGRATION CONVERGENCE:
   Recorrection delta-x convergence threshold:    0.010000
   Delta-x Convergence Met
 Point Number:   1          Path Number:   1
   CHANGE IN THE REACTION COORDINATE =    0.04901
   NET REACTION COORDINATE UP TO THIS POINT =    0.04901
  # OF POINTS ALONG THE PATH =   1
  # OF STEPS =   1

 Calculating another point on the path.
 IRC-IRC-IRC-IRC-IRC-IRC-IRC-IRC-IRC-IRC-IRC-IRC-IRC-IRC-IRC-IRC-IRC-IRC
                          Input orientation:                          
 ---------------------------------------------------------------------
 Center     Atomic      Atomic             Coordinates (Angstroms)
 Number     Number       Type             X           Y           Z
 ---------------------------------------------------------------------
      1          6           0        1.650893    0.680110    0.787857
      2          1           0        0.761599    1.026443    1.319224
      3          1           0        2.508700    0.856036    1.439401
      4          6           0        1.523596   -0.794692    0.532547
      5          1           0        1.113796   -1.105904   -0.410763
      6          1           0        1.754719   -1.522323    1.294636
      7          8           0        1.851941    1.335619   -0.429292
      8          1           0        3.093254    0.085396   -0.720840
      9          8           0        3.327320   -0.785645   -0.315340
     10          1           0        3.371089   -1.421198   -1.032320
     11         14           0       -1.391054    0.007283   -0.155265
     12          8           0       -2.054312    1.236905    0.708935
     13          1           0       -2.776275    1.011605    1.290293
     14          8           0       -0.381050    0.466885   -1.244282
     15          1           0        0.975373    1.161329   -0.922947
     16          8           0       -0.564736   -0.942117    1.037468
     17          1           0       -0.897178   -1.838874    1.072488
     18          8           0       -2.575865   -1.061605   -0.590526
     19          1           0       -2.792016   -1.058727   -1.519931
 ---------------------------------------------------------------------
                    Distance matrix (angstroms):
                    1          2          3          4          5
     1  C    0.000000
     2  H    1.092309   0.000000
     3  H    1.091463   1.759500   0.000000
     4  C    1.502141   2.125095   2.125491   0.000000
     5  H    2.216982   2.768356   3.036127   1.074534   0.000000
     6  H    2.262369   2.735525   2.499206   1.078723   1.868842
     7  O    1.396984   2.083685   2.037975   2.360332   2.550732
     8  H    2.170313   3.237907   2.366903   2.193025   2.331007
     9  O    2.485135   3.540959   2.538577   1.993092   2.238607
    10  H    3.269193   4.281372   3.469714   2.500910   2.362439
    11  Si   3.255091   2.801200   4.297839   3.100231   2.752951
    12  O    3.747638   2.888963   4.636779   4.118243   4.096265
    13  H    4.467901   3.538023   5.289366   4.725016   4.744480
    14  O    2.881640   2.861873   3.962858   2.894197   2.324432
    15  H    1.901250   2.256374   2.832840   2.499006   2.328484
    16  O    2.757342   2.390351   3.583421   2.153557   2.222986
    17  H    3.594295   3.320009   4.358573   2.691096   2.604092
    18  O    4.774829   4.375586   5.800926   4.258887   3.694303
    19  H    5.299894   5.003690   6.365653   4.786114   4.060523
                    6          7          8          9         10
     6  H    0.000000
     7  O    3.339043   0.000000
     8  H    2.904923   1.785753   0.000000
     9  O    2.368078   2.586405   0.988903   0.000000
    10  H    2.835067   3.204917   1.563342   0.959116   0.000000
    11  Si   3.786528   3.515193   4.520508   4.787214   5.048544
    12  O    4.739736   4.069904   5.465132   5.839676   6.287485
    13  H    5.191408   4.947963   6.273268   6.562168   7.007364
    14  O    3.868405   2.530841   3.534164   4.022906   4.205750
    15  H    3.567498   1.021002   2.384093   3.113126   3.524326
    16  O    2.404713   3.630398   4.186683   4.123430   4.472612
    17  H    2.679945   4.459866   4.779371   4.569655   4.777319
    18  O    4.745530   5.037673   5.785456   5.916036   5.974174
    19  H    5.367448   5.337483   6.048468   6.242747   6.192981
                   11         12         13         14         15
    11  Si   0.000000
    12  O    1.642779   0.000000
    13  H    2.239897   0.953922   0.000000
    14  O    1.554767   2.684734   3.529575   0.000000
    15  H    2.742468   3.442055   4.358407   1.557367   0.000000
    16  O    1.734005   2.659870   2.961732   2.688012   3.261847
    17  H    2.271473   3.306290   3.421064   3.309130   4.060718
    18  O    1.654011   2.691424   2.806394   2.753342   4.202764
    19  H    2.227417   3.283592   3.490542   2.866397   4.413418
                   16         17         18         19
    16  O    0.000000
    17  H    0.957036   0.000000
    18  O    2.590228   2.487520   0.000000
    19  H    3.393326   3.304493   0.954213   0.000000
 Symmetry turned off by external request.
 Stoichiometry    C2H10O6Si
 Framework group  C1[X(C2H10O6Si)]
 Deg. of freedom    51
 Full point group                 C1      NOp   1
 Rotational constants (GHZ):           2.3948749           0.7630446           0.7182170
 Standard basis: def2TZVPP (5D, 7F)
   430 basis functions,   647 primitive gaussians,   486 cartesian basis functions
    42 alpha electrons       42 beta electrons
       nuclear repulsion energy       641.5846826231 Hartrees.
 NAtoms=   19 NActive=   19 NUniq=   19 SFac= 1.00D+00 NAtFMM=   60 NAOKFM=F Big=F
 Integral buffers will be    131072 words long.
 Raffenetti 2 integral format.
 Two-electron integral symmetry is turned off.
 Nuclear repulsion after empirical dispersion term =      641.5741450370 Hartrees.
 One-electron integrals computed using PRISM.
   1 Symmetry operations used in ECPInt.
 ECPInt:  NShTT=   13203 NPrTT=   36019 LenC2=   12503 LenP2D=   26752.
 LDataN:  DoStor=T MaxTD1= 6 Len=  172
 NBasis=   430 RedAO= T EigKep=  1.69D-04  NBF=   430
 NBsUse=   430 1.00D-06 EigRej= -1.00D+00 NBFU=   430
 Initial guess from the checkpoint file:  "IRCSiAttack_100step_maxcycles100_ReverseOnly.chk"
 B after Tr=    -0.000111    0.000020    0.000040
         Rot=    1.000000    0.000032   -0.000006   -0.000004 Ang=   0.00 deg.
 ExpMin= 7.01D-02 ExpMax= 4.48D+04 ExpMxC= 1.53D+03 IAcc=3 IRadAn=         5 AccDes= 0.00D+00
 Harris functional with IExCor= 4639 and IRadAn=       5 diagonalized for initial guess.
 HarFok:  IExCor= 4639 AccDes= 0.00D+00 IRadAn=         5 IDoV= 1 UseB2=F ITyADJ=14
 ICtDFT=  3500011 ScaDFX=  1.000000  1.000000  1.000000  1.000000
 FoFCou: FMM=F IPFlag=           0 FMFlag=      100000 FMFlg1=           0
         NFxFlg=           0 DoJE=T BraDBF=F KetDBF=T FulRan=T
         wScrn=  0.000000 ICntrl=       500 IOpCl=  0 I1Cent=   200000004 NGrid=           0
         NMat0=    1 NMatS0=      1 NMatT0=    0 NMatD0=    1 NMtDS0=    0 NMtDT0=    0
 Symmetry not used in FoFCou.
 Requested convergence on RMS density matrix=1.00D-08 within 128 cycles.
 Requested convergence on MAX density matrix=1.00D-06.
 Requested convergence on             energy=1.00D-06.
 No special actions if energy rises.
 Integral accuracy reduced to 1.0D-05 until final iterations.
 Initial convergence to 1.0D-05 achieved.  Increase integral accuracy.
 SCF Done:  E(RwB97XD) =  -823.262054135     A.U. after   10 cycles
            NFock= 10  Conv=0.31D-08     -V/T= 2.0034
 DoSCS=F DFT=T ScalE2(SS,OS)=  1.000000  1.000000
 Range of M.O.s used for correlation:     1   430
 NBasis=   430 NAE=    42 NBE=    42 NFC=     0 NFV=     0
 NROrb=    430 NOA=    42 NOB=    42 NVA=   388 NVB=   388

 **** Warning!!: The largest alpha MO coefficient is  0.13116989D+02

 Symmetrizing basis deriv contribution to polar:
 IMax=3 JMax=2 DiffMx= 0.00D+00
   1 Symmetry operations used in ECPInt.
 ECPInt:  NShTT=   13203 NPrTT=   36019 LenC2=   12503 LenP2D=   26752.
 LDataN:  DoStor=T MaxTD1= 7 Len=  274
 Calling FoFJK, ICntrl=      2127 FMM=F ISym2X=0 I1Cent= 0 IOpClX= 0 NMat=1 NMatS=1 NMatT=0.
 -------------------------------------------------------------------
 Center     Atomic                   Forces (Hartrees/Bohr)
 Number     Number              X              Y              Z
 -------------------------------------------------------------------
      1        6           0.000194609    0.000022078   -0.000023506
      2        1          -0.000014676   -0.000065641   -0.000028839
      3        1          -0.000011201    0.000054713    0.000015761
      4        6           0.001666815   -0.000024046   -0.000489937
      5        1          -0.000019562    0.000017671    0.000054837
      6        1           0.000060450    0.000002063   -0.000016186
      7        8           0.000038430   -0.000012878   -0.000152857
      8        1          -0.000042716    0.000037033    0.000010321
      9        8          -0.000957233    0.000188630    0.000343106
     10        1          -0.000090006   -0.000003911    0.000032255
     11       14           0.000067270   -0.000256278    0.000280160
     12        8          -0.000029443    0.000115708   -0.000128477
     13        1           0.000018685   -0.000001973    0.000010626
     14        8           0.000114032    0.000000893    0.000118643
     15        1          -0.000014672   -0.000017937    0.000003752
     16        8          -0.000789856   -0.000145056    0.000121434
     17        1          -0.000102103    0.000020257    0.000032689
     18        8          -0.000068578    0.000036468   -0.000172991
     19        1          -0.000020248    0.000032206   -0.000010793
 -------------------------------------------------------------------
 Cartesian Forces:  Max     0.001666815 RMS     0.000299058
 IRC-IRC-IRC-IRC-IRC-IRC-IRC-IRC-IRC-IRC-IRC-IRC-IRC-IRC-IRC-IRC-IRC-IRC
 Pt  2 Step number   1 out of a maximum of 100
 Modified Bulirsch-Stoer Extrapolation Cycles:
    EPS =    0.000010000000000
      PEZero:  N= 2 I= 1 D=  2.55D-04 Err=  2.44D-06
 Maximum DWI energy   std dev =  0.000000017 at pt    49
 Maximum DWI gradient std dev =  0.021024629 at pt    37
 CORRECTOR INTEGRATION CONVERGENCE:
   Recorrection delta-x convergence threshold:    0.010000
   Delta-x Convergence Met
 Point Number:   2          Path Number:   1
   CHANGE IN THE REACTION COORDINATE =    0.04900
   NET REACTION COORDINATE UP TO THIS POINT =    0.09800
  # OF POINTS ALONG THE PATH =   2
  # OF STEPS =   1

 Calculating another point on the path.
 IRC-IRC-IRC-IRC-IRC-IRC-IRC-IRC-IRC-IRC-IRC-IRC-IRC-IRC-IRC-IRC-IRC-IRC
                          Input orientation:                          
 ---------------------------------------------------------------------
 Center     Atomic      Atomic             Coordinates (Angstroms)
 Number     Number       Type             X           Y           Z
 ---------------------------------------------------------------------
      1          6           0        1.651565    0.680161    0.787771
      2          1           0        0.760798    1.023944    1.318114
      3          1           0        2.508392    0.858369    1.440026
      4          6           0        1.529190   -0.794742    0.530971
      5          1           0        1.112676   -1.105537   -0.409637
      6          1           0        1.757194   -1.522305    1.294095
      7          8           0        1.852042    1.335586   -0.429656
      8          1           0        3.091616    0.086599   -0.720360
      9          8           0        3.324903   -0.785150   -0.314475
     10          1           0        3.367478   -1.421345   -1.031086
     11         14           0       -1.390954    0.006918   -0.154857
     12          8           0       -2.054384    1.237203    0.708606
     13          1           0       -2.775590    1.011507    1.290749
     14          8           0       -0.380767    0.466882   -1.243993
     15          1           0        0.974737    1.160576   -0.922879
     16          8           0       -0.566717   -0.942464    1.037769
     17          1           0       -0.901253   -1.838315    1.073811
     18          8           0       -2.576033   -1.061517   -0.590972
     19          1           0       -2.792868   -1.057470   -1.520204
 ---------------------------------------------------------------------
                    Distance matrix (angstroms):
                    1          2          3          4          5
     1  C    0.000000
     2  H    1.092207   0.000000
     3  H    1.091488   1.759649   0.000000
     4  C    1.502086   2.125475   2.125557   0.000000
     5  H    2.216508   2.764712   3.037466   1.074625   0.000000
     6  H    2.262383   2.734367   2.500640   1.078745   1.868635
     7  O    1.397104   2.083899   2.038195   2.359096   2.550714
     8  H    2.168069   3.235230   2.367076   2.187182   2.331082
     9  O    2.482367   3.537344   2.538920   1.984806   2.237331
    10  H    3.266332   4.277027   3.470088   2.492379   2.360098
    11  Si   3.255568   2.798932   4.298083   3.104877   2.751478
    12  O    3.748415   2.888291   4.636530   4.123392   4.095018
    13  H    4.467939   3.536516   5.288308   4.729792   4.742553
    14  O    2.881653   2.859700   3.962885   2.896572   2.323581
    15  H    1.901372   2.255325   2.833151   2.498873   2.327599
    16  O    2.759744   2.389068   3.586238   2.161364   2.223047
    17  H    3.597419   3.318828   4.362556   2.700143   2.606433
    18  O    4.775663   4.373579   5.801921   4.264127   3.693426
    19  H    5.300858   5.001687   6.366848   4.791298   4.060659
                    6          7          8          9         10
     6  H    0.000000
     7  O    3.338840   0.000000
     8  H    2.902979   1.783542   0.000000
     9  O    2.364024   2.584590   0.989500   0.000000
    10  H    2.830136   3.202956   1.564143   0.959212   0.000000
    11  Si   3.787983   3.515380   4.518803   4.784575   5.044837
    12  O    4.741920   4.070071   5.463255   5.837237   6.284186
    13  H    5.192913   4.947706   6.270895   6.559020   7.003354
    14  O    3.869061   2.530460   3.532174   4.020396   4.202389
    15  H    3.567220   1.021548   2.382356   3.111155   3.521822
    16  O    2.408833   3.632250   4.187289   4.122865   4.470724
    17  H    2.686210   4.462588   4.781982   4.571312   4.777711
    18  O    4.747910   5.037854   5.784217   5.913872   5.970636
    19  H    5.370234   5.337715   6.047793   6.241399   6.190437
                   11         12         13         14         15
    11  Si   0.000000
    12  O    1.642958   0.000000
    13  H    2.239686   0.953922   0.000000
    14  O    1.555076   2.684591   3.529406   0.000000
    15  H    2.741766   3.441394   4.357445   1.556187   0.000000
    16  O    1.732931   2.659408   2.959920   2.688359   3.262361
    17  H    2.270311   3.304829   3.417848   3.310144   4.061953
    18  O    1.654134   2.691679   2.806799   2.753476   4.201884
    19  H    2.227657   3.283059   3.490332   2.866736   4.412639
                   16         17         18         19
    16  O    0.000000
    17  H    0.956954   0.000000
    18  O    2.589271   2.485921   0.000000
    19  H    3.392964   3.304064   0.954204   0.000000
 Symmetry turned off by external request.
 Stoichiometry    C2H10O6Si
 Framework group  C1[X(C2H10O6Si)]
 Deg. of freedom    51
 Full point group                 C1      NOp   1
 Rotational constants (GHZ):           2.3952541           0.7630828           0.7182169
 Standard basis: def2TZVPP (5D, 7F)
   430 basis functions,   647 primitive gaussians,   486 cartesian basis functions
    42 alpha electrons       42 beta electrons
       nuclear repulsion energy       641.6115059976 Hartrees.
 NAtoms=   19 NActive=   19 NUniq=   19 SFac= 1.00D+00 NAtFMM=   60 NAOKFM=F Big=F
 Integral buffers will be    131072 words long.
 Raffenetti 2 integral format.
 Two-electron integral symmetry is turned off.
 Nuclear repulsion after empirical dispersion term =      641.6009698931 Hartrees.
 One-electron integrals computed using PRISM.
   1 Symmetry operations used in ECPInt.
 ECPInt:  NShTT=   13203 NPrTT=   36019 LenC2=   12503 LenP2D=   26754.
 LDataN:  DoStor=T MaxTD1= 6 Len=  172
 NBasis=   430 RedAO= T EigKep=  1.69D-04  NBF=   430
 NBsUse=   430 1.00D-06 EigRej= -1.00D+00 NBFU=   430
 Initial guess from the checkpoint file:  "IRCSiAttack_100step_maxcycles100_ReverseOnly.chk"
 B after Tr=    -0.000111    0.000025    0.000037
         Rot=    1.000000    0.000016   -0.000002    0.000001 Ang=   0.00 deg.
 ExpMin= 7.01D-02 ExpMax= 4.48D+04 ExpMxC= 1.53D+03 IAcc=3 IRadAn=         5 AccDes= 0.00D+00
 Harris functional with IExCor= 4639 and IRadAn=       5 diagonalized for initial guess.
 HarFok:  IExCor= 4639 AccDes= 0.00D+00 IRadAn=         5 IDoV= 1 UseB2=F ITyADJ=14
 ICtDFT=  3500011 ScaDFX=  1.000000  1.000000  1.000000  1.000000
 FoFCou: FMM=F IPFlag=           0 FMFlag=      100000 FMFlg1=           0
         NFxFlg=           0 DoJE=T BraDBF=F KetDBF=T FulRan=T
         wScrn=  0.000000 ICntrl=       500 IOpCl=  0 I1Cent=   200000004 NGrid=           0
         NMat0=    1 NMatS0=      1 NMatT0=    0 NMatD0=    1 NMtDS0=    0 NMtDT0=    0
 Symmetry not used in FoFCou.
 Requested convergence on RMS density matrix=1.00D-08 within 128 cycles.
 Requested convergence on MAX density matrix=1.00D-06.
 Requested convergence on             energy=1.00D-06.
 No special actions if energy rises.
 Integral accuracy reduced to 1.0D-05 until final iterations.
 Initial convergence to 1.0D-05 achieved.  Increase integral accuracy.
 SCF Done:  E(RwB97XD) =  -823.262094038     A.U. after   10 cycles
            NFock= 10  Conv=0.32D-08     -V/T= 2.0034
 DoSCS=F DFT=T ScalE2(SS,OS)=  1.000000  1.000000
 Range of M.O.s used for correlation:     1   430
 NBasis=   430 NAE=    42 NBE=    42 NFC=     0 NFV=     0
 NROrb=    430 NOA=    42 NOB=    42 NVA=   388 NVB=   388

 **** Warning!!: The largest alpha MO coefficient is  0.13007205D+02

 Symmetrizing basis deriv contribution to polar:
 IMax=3 JMax=2 DiffMx= 0.00D+00
   1 Symmetry operations used in ECPInt.
 ECPInt:  NShTT=   13203 NPrTT=   36019 LenC2=   12503 LenP2D=   26754.
 LDataN:  DoStor=T MaxTD1= 7 Len=  274
 Calling FoFJK, ICntrl=      2127 FMM=F ISym2X=0 I1Cent= 0 IOpClX= 0 NMat=1 NMatS=1 NMatT=0.
 -------------------------------------------------------------------
 Center     Atomic                   Forces (Hartrees/Bohr)
 Number     Number              X              Y              Z
 -------------------------------------------------------------------
      1        6           0.000298614    0.000019298   -0.000027573
      2        1          -0.000024863   -0.000096021   -0.000045212
      3        1          -0.000014345    0.000088460    0.000020843
      4        6           0.002540236   -0.000038835   -0.000747275
      5        1          -0.000035014    0.000023611    0.000071422
      6        1           0.000094422    0.000005290   -0.000023067
      7        8           0.000065391   -0.000022649   -0.000210251
      8        1          -0.000065296    0.000054331    0.000014476
      9        8          -0.001472164    0.000285447    0.000529739
     10        1          -0.000136372   -0.000005026    0.000047812
     11       14           0.000103732   -0.000376247    0.000423070
     12        8          -0.000042597    0.000177793   -0.000192054
     13        1           0.000027007   -0.000003801    0.000016722
     14        8           0.000173263    0.000005725    0.000177750
     15        1          -0.000024967   -0.000029321    0.000001912
     16        8          -0.001200380   -0.000221491    0.000176975
     17        1          -0.000152302    0.000026190    0.000051362
     18        8          -0.000102079    0.000061802   -0.000278587
     19        1          -0.000032285    0.000045445   -0.000008064
 -------------------------------------------------------------------
 Cartesian Forces:  Max     0.002540236 RMS     0.000456052
 IRC-IRC-IRC-IRC-IRC-IRC-IRC-IRC-IRC-IRC-IRC-IRC-IRC-IRC-IRC-IRC-IRC-IRC
 Pt  3 Step number   1 out of a maximum of 100
 Modified Bulirsch-Stoer Extrapolation Cycles:
    EPS =    0.000010000000000
      PEZero:  N= 2 I= 1 D=  2.55D-04 Err=  1.25D-06
 Maximum DWI energy   std dev =  0.000000035 at pt    47
 Maximum DWI gradient std dev =  0.012585735 at pt    28
 CORRECTOR INTEGRATION CONVERGENCE:
   Recorrection delta-x convergence threshold:    0.010000
   Delta-x Convergence Met
 Point Number:   3          Path Number:   1
   CHANGE IN THE REACTION COORDINATE =    0.04900
   NET REACTION COORDINATE UP TO THIS POINT =    0.14700
  # OF POINTS ALONG THE PATH =   3
  # OF STEPS =   1

 Calculating another point on the path.
 IRC-IRC-IRC-IRC-IRC-IRC-IRC-IRC-IRC-IRC-IRC-IRC-IRC-IRC-IRC-IRC-IRC-IRC
                          Input orientation:                          
 ---------------------------------------------------------------------
 Center     Atomic      Atomic             Coordinates (Angstroms)
 Number     Number       Type             X           Y           Z
 ---------------------------------------------------------------------
      1          6           0        1.652230    0.680196    0.787703
      2          1           0        0.760007    1.021460    1.317006
      3          1           0        2.508089    0.860699    1.440637
      4          6           0        1.534785   -0.794803    0.529380
      5          1           0        1.111527   -1.105158   -0.408467
      6          1           0        1.759693   -1.522265    1.293549
      7          8           0        1.852151    1.335545   -0.429998
      8          1           0        3.089949    0.087808   -0.719879
      9          8           0        3.322461   -0.784665   -0.313603
     10          1           0        3.363906   -1.421486   -1.029855
     11         14           0       -1.390856    0.006566   -0.154460
     12          8           0       -2.054452    1.237496    0.708292
     13          1           0       -2.774913    1.011397    1.291201
     14          8           0       -0.380481    0.466894   -1.243705
     15          1           0        0.974114    1.159811   -0.922811
     16          8           0       -0.568685   -0.942818    1.038056
     17          1           0       -0.905274   -1.837769    1.075146
     18          8           0       -2.576199   -1.061414   -0.591427
     19          1           0       -2.793727   -1.056290   -1.520474
 ---------------------------------------------------------------------
                    Distance matrix (angstroms):
                    1          2          3          4          5
     1  C    0.000000
     2  H    1.092102   0.000000
     3  H    1.091512   1.759807   0.000000
     4  C    1.502048   2.125900   2.125652   0.000000
     5  H    2.216004   2.761038   3.038777   1.074720   0.000000
     6  H    2.262358   2.733214   2.502048   1.078768   1.868411
     7  O    1.397227   2.084095   2.038383   2.357861   2.550689
     8  H    2.165817   3.232528   2.367224   2.181327   2.331158
     9  O    2.479590   3.533716   2.539249   1.976489   2.236056
    10  H    3.263498   4.272708   3.470464   2.483874   2.357838
    11  Si   3.256044   2.796683   4.298331   3.109534   2.749976
    12  O    3.749184   2.887626   4.636279   4.128544   4.093727
    13  H    4.467974   3.535028   5.287263   4.734577   4.740579
    14  O    2.881671   2.857533   3.962904   2.898957   2.322726
    15  H    1.901507   2.254277   2.833449   2.498746   2.326697
    16  O    2.762121   2.387807   3.589050   2.169157   2.223037
    17  H    3.600500   3.317657   4.366504   2.709156   2.608699
    18  O    4.776486   4.371584   5.802912   4.269365   3.692521
    19  H    5.301849   4.999737   6.368067   4.796488   4.060783
                    6          7          8          9         10
     6  H    0.000000
     7  O    3.338598   0.000000
     8  H    2.901002   1.781298   0.000000
     9  O    2.359923   2.582761   0.990118   0.000000
    10  H    2.825219   3.201008   1.564962   0.959309   0.000000
    11  Si   3.789461   3.515565   4.517069   4.781918   5.041172
    12  O    4.744103   4.070241   5.461347   5.834776   6.280919
    13  H    5.194429   4.947455   6.268497   6.555853   6.999380
    14  O    3.869723   2.530082   3.530153   4.017869   4.199065
    15  H    3.566921   1.022104   2.380573   3.109158   3.519327
    16  O    2.412961   3.634083   4.187854   4.122258   4.468853
    17  H    2.692451   4.465285   4.784534   4.572898   4.778098
    18  O    4.750314   5.038031   5.782944   5.911681   5.967137
    19  H    5.373035   5.337995   6.047112   6.240039   6.187934
                   11         12         13         14         15
    11  Si   0.000000
    12  O    1.643134   0.000000
    13  H    2.239471   0.953922   0.000000
    14  O    1.555383   2.684455   3.529240   0.000000
    15  H    2.741063   3.440748   4.356498   1.555003   0.000000
    16  O    1.731874   2.658951   2.958121   2.688706   3.262863
    17  H    2.269205   3.303399   3.414670   3.311185   4.063178
    18  O    1.654255   2.691928   2.807191   2.753611   4.200998
    19  H    2.227937   3.282588   3.490158   2.867133   4.411908
                   16         17         18         19
    16  O    0.000000
    17  H    0.956872   0.000000
    18  O    2.588318   2.484387   0.000000
    19  H    3.392605   3.303666   0.954188   0.000000
 Symmetry turned off by external request.
 Stoichiometry    C2H10O6Si
 Framework group  C1[X(C2H10O6Si)]
 Deg. of freedom    51
 Full point group                 C1      NOp   1
 Rotational constants (GHZ):           2.3956367           0.7631228           0.7182188
 Standard basis: def2TZVPP (5D, 7F)
   430 basis functions,   647 primitive gaussians,   486 cartesian basis functions
    42 alpha electrons       42 beta electrons
       nuclear repulsion energy       641.6396515097 Hartrees.
 NAtoms=   19 NActive=   19 NUniq=   19 SFac= 1.00D+00 NAtFMM=   60 NAOKFM=F Big=F
 Integral buffers will be    131072 words long.
 Raffenetti 2 integral format.
 Two-electron integral symmetry is turned off.
 Nuclear repulsion after empirical dispersion term =      641.6291168961 Hartrees.
 One-electron integrals computed using PRISM.
   1 Symmetry operations used in ECPInt.
 ECPInt:  NShTT=   13203 NPrTT=   36019 LenC2=   12503 LenP2D=   26752.
 LDataN:  DoStor=T MaxTD1= 6 Len=  172
 NBasis=   430 RedAO= T EigKep=  1.70D-04  NBF=   430
 NBsUse=   430 1.00D-06 EigRej= -1.00D+00 NBFU=   430
 Initial guess from the checkpoint file:  "IRCSiAttack_100step_maxcycles100_ReverseOnly.chk"
 B after Tr=    -0.000110    0.000024    0.000038
         Rot=    1.000000    0.000012   -0.000001    0.000002 Ang=   0.00 deg.
 ExpMin= 7.01D-02 ExpMax= 4.48D+04 ExpMxC= 1.53D+03 IAcc=3 IRadAn=         5 AccDes= 0.00D+00
 Harris functional with IExCor= 4639 and IRadAn=       5 diagonalized for initial guess.
 HarFok:  IExCor= 4639 AccDes= 0.00D+00 IRadAn=         5 IDoV= 1 UseB2=F ITyADJ=14
 ICtDFT=  3500011 ScaDFX=  1.000000  1.000000  1.000000  1.000000
 FoFCou: FMM=F IPFlag=           0 FMFlag=      100000 FMFlg1=           0
         NFxFlg=           0 DoJE=T BraDBF=F KetDBF=T FulRan=T
         wScrn=  0.000000 ICntrl=       500 IOpCl=  0 I1Cent=   200000004 NGrid=           0
         NMat0=    1 NMatS0=      1 NMatT0=    0 NMatD0=    1 NMtDS0=    0 NMtDT0=    0
 Symmetry not used in FoFCou.
 Requested convergence on RMS density matrix=1.00D-08 within 128 cycles.
 Requested convergence on MAX density matrix=1.00D-06.
 Requested convergence on             energy=1.00D-06.
 No special actions if energy rises.
 Integral accuracy reduced to 1.0D-05 until final iterations.
 Initial convergence to 1.0D-05 achieved.  Increase integral accuracy.
 SCF Done:  E(RwB97XD) =  -823.262150816     A.U. after   10 cycles
            NFock= 10  Conv=0.32D-08     -V/T= 2.0034
 DoSCS=F DFT=T ScalE2(SS,OS)=  1.000000  1.000000
 Range of M.O.s used for correlation:     1   430
 NBasis=   430 NAE=    42 NBE=    42 NFC=     0 NFV=     0
 NROrb=    430 NOA=    42 NOB=    42 NVA=   388 NVB=   388

 **** Warning!!: The largest alpha MO coefficient is  0.12902171D+02

 Symmetrizing basis deriv contribution to polar:
 IMax=3 JMax=2 DiffMx= 0.00D+00
   1 Symmetry operations used in ECPInt.
 ECPInt:  NShTT=   13203 NPrTT=   36019 LenC2=   12503 LenP2D=   26752.
 LDataN:  DoStor=T MaxTD1= 7 Len=  274
 Calling FoFJK, ICntrl=      2127 FMM=F ISym2X=0 I1Cent= 0 IOpClX= 0 NMat=1 NMatS=1 NMatT=0.
 -------------------------------------------------------------------
 Center     Atomic                   Forces (Hartrees/Bohr)
 Number     Number              X              Y              Z
 -------------------------------------------------------------------
      1        6           0.000404474    0.000020759   -0.000032835
      2        1          -0.000035309   -0.000129401   -0.000059649
      3        1          -0.000018439    0.000118942    0.000029049
      4        6           0.003445811   -0.000050699   -0.001011926
      5        1          -0.000050999    0.000029862    0.000088501
      6        1           0.000128768    0.000005746   -0.000031133
      7        8           0.000092753   -0.000035489   -0.000277658
      8        1          -0.000088870    0.000071378    0.000021481
      9        8          -0.002017779    0.000387080    0.000724261
     10        1          -0.000183260   -0.000006554    0.000064243
     11       14           0.000137890   -0.000499088    0.000564372
     12        8          -0.000056227    0.000239089   -0.000255384
     13        1           0.000035749   -0.000005367    0.000022518
     14        8           0.000234855    0.000010231    0.000236845
     15        1          -0.000033231   -0.000039692    0.000002965
     16        8          -0.001611669   -0.000296931    0.000233690
     17        1          -0.000204934    0.000033617    0.000068057
     18        8          -0.000135644    0.000085517   -0.000374862
     19        1          -0.000043938    0.000061002   -0.000012534
 -------------------------------------------------------------------
 Cartesian Forces:  Max     0.003445811 RMS     0.000618475
 IRC-IRC-IRC-IRC-IRC-IRC-IRC-IRC-IRC-IRC-IRC-IRC-IRC-IRC-IRC-IRC-IRC-IRC
 Pt  4 Step number   1 out of a maximum of 100
 Modified Bulirsch-Stoer Extrapolation Cycles:
    EPS =    0.000010000000000
      PEZero:  N= 2 I= 1 D=  2.55D-04 Err=  1.44D-06
 Maximum DWI energy   std dev =  0.000000036 at pt    35
 Maximum DWI gradient std dev =  0.009078344 at pt    38
 CORRECTOR INTEGRATION CONVERGENCE:
   Recorrection delta-x convergence threshold:    0.010000
   Delta-x Convergence Met
 Point Number:   4          Path Number:   1
   CHANGE IN THE REACTION COORDINATE =    0.04900
   NET REACTION COORDINATE UP TO THIS POINT =    0.19600
  # OF POINTS ALONG THE PATH =   4
  # OF STEPS =   1

 Calculating another point on the path.
 IRC-IRC-IRC-IRC-IRC-IRC-IRC-IRC-IRC-IRC-IRC-IRC-IRC-IRC-IRC-IRC-IRC-IRC
                          Input orientation:                          
 ---------------------------------------------------------------------
 Center     Atomic      Atomic             Coordinates (Angstroms)
 Number     Number       Type             X           Y           Z
 ---------------------------------------------------------------------
      1          6           0        1.652890    0.680224    0.787645
      2          1           0        0.759230    1.018985    1.315909
      3          1           0        2.507787    0.863004    1.441244
      4          6           0        1.540379   -0.794867    0.527775
      5          1           0        1.110360   -1.104752   -0.407261
      6          1           0        1.762201   -1.522219    1.292986
      7          8           0        1.852265    1.335499   -0.430332
      8          1           0        3.088257    0.089033   -0.719387
      9          8           0        3.319993   -0.784185   -0.312722
     10          1           0        3.360374   -1.421614   -1.028625
     11         14           0       -1.390761    0.006222   -0.154070
     12          8           0       -2.054519    1.237786    0.707984
     13          1           0       -2.774245    1.011286    1.291645
     14          8           0       -0.380195    0.466908   -1.243420
     15          1           0        0.973496    1.159046   -0.922741
     16          8           0       -0.570632   -0.943170    1.038335
     17          1           0       -0.909250   -1.837224    1.076452
     18          8           0       -2.576362   -1.061310   -0.591879
     19          1           0       -2.794578   -1.055123   -1.520743
 ---------------------------------------------------------------------
                    Distance matrix (angstroms):
                    1          2          3          4          5
     1  C    0.000000
     2  H    1.091993   0.000000
     3  H    1.091536   1.759969   0.000000
     4  C    1.502028   2.126361   2.125757   0.000000
     5  H    2.215464   2.757330   3.040040   1.074820   0.000000
     6  H    2.262316   2.732068   2.503431   1.078793   1.868159
     7  O    1.397356   2.084290   2.038568   2.356629   2.550643
     8  H    2.163546   3.229800   2.367340   2.175458   2.331228
     9  O    2.476800   3.530066   2.539549   1.968140   2.234766
    10  H    3.260685   4.268409   3.470826   2.475394   2.355644
    11  Si   3.256519   2.794457   4.298579   3.114199   2.748449
    12  O    3.749946   2.886976   4.636029   4.133696   4.092397
    13  H    4.468012   3.533567   5.286230   4.739374   4.738571
    14  O    2.881694   2.855389   3.962922   2.901347   2.321859
    15  H    1.901648   2.253238   2.833746   2.498626   2.325776
    16  O    2.764471   2.386553   3.591833   2.176931   2.222969
    17  H    3.603542   3.316489   4.370406   2.718131   2.610889
    18  O    4.777300   4.369607   5.803891   4.274596   3.691597
    19  H    5.302834   4.997807   6.369274   4.801667   4.060892
                    6          7          8          9         10
     6  H    0.000000
     7  O    3.338336   0.000000
     8  H    2.899000   1.779018   0.000000
     9  O    2.355782   2.580914   0.990751   0.000000
    10  H    2.820312   3.199065   1.565801   0.959408   0.000000
    11  Si   3.790946   3.515752   4.515312   4.779238   5.037544
    12  O    4.746283   4.070414   5.459410   5.832288   6.277681
    13  H    5.195959   4.947212   6.266077   6.552667   6.995441
    14  O    3.870380   2.529711   3.528110   4.015324   4.195773
    15  H    3.566607   1.022662   2.378759   3.107140   3.516846
    16  O    2.417075   3.635896   4.188376   4.121600   4.466994
[...]
     15          1           0        0.509817    0.917195   -1.041818
     16          8           0       -0.686572   -0.967100    1.050205
     17          1           0       -1.114379   -1.813404    1.156129
     18          8           0       -2.573048   -1.038006   -0.642001
     19          1           0       -2.887523   -0.969977   -1.539469
 ---------------------------------------------------------------------
                    Distance matrix (angstroms):
                    1          2          3          4          5
     1  C    0.000000
     2  H    1.084286   0.000000
     3  H    1.092699   1.766604   0.000000
     4  C    1.517105   2.208750   2.152342   0.000000
     5  H    2.160799   2.543831   3.059400   1.080905   0.000000
     6  H    2.199538   2.679442   2.501772   1.088514   1.776796
     7  O    1.423487   2.063492   2.067637   2.304074   2.599850
     8  H    1.883485   2.786140   2.361553   2.184966   2.539368
     9  O    2.283947   3.285583   2.568571   1.449705   2.070997
    10  H    3.086730   4.004533   3.501583   1.985449   2.187800
    11  Si   3.300392   2.676183   4.312392   3.434905   2.768005
    12  O    3.806982   2.861044   4.612488   4.464346   4.090022
    13  H    4.466199   3.454180   5.195449   5.041836   4.678175
    14  O    2.891913   2.704632   3.960671   3.092521   2.435346
    15  H    2.209760   2.266807   3.213559   2.676218   2.329951
    16  O    2.901876   2.361352   3.745242   2.657131   2.208882
    17  H    3.765771   3.293550   4.566889   3.252375   2.695202
    18  O    4.821803   4.264629   5.846698   4.611899   3.724577
    19  H    5.404157   4.923660   6.468024   5.190220   4.232728
                    6          7          8          9         10
     6  H    0.000000
     7  O    3.292555   0.000000
     8  H    3.195281   0.968795   0.000000
     9  O    2.104780   2.423352   1.737546   0.000000
    10  H    2.553838   3.067326   2.302061   0.954579   0.000000
    11  Si   3.941591   3.549906   4.142594   4.605430   4.846175
    12  O    4.905824   4.093660   4.919450   5.656261   6.089990
    13  H    5.314189   4.936506   5.748648   6.333599   6.766109
    14  O    3.962950   2.506178   2.996058   3.834069   4.019191
    15  H    3.664017   1.541640   2.103435   3.216755   3.552249
    16  O    2.725146   3.745927   4.185839   4.063529   4.359080
    17  H    3.118694   4.615935   4.962409   4.620914   4.778378
    18  O    4.978431   5.037307   5.492197   5.742699   5.761383
    19  H    5.670227   5.394485   5.805306   6.173790   6.103003
                   11         12         13         14         15
    11  Si   0.000000
    12  O    1.637796   0.000000
    13  H    2.216451   0.954599   0.000000
    14  O    1.597643   2.662126   3.515123   0.000000
    15  H    2.315269   3.102340   4.000466   0.987715   0.000000
    16  O    1.660199   2.637558   2.860598   2.712825   3.059163
    17  H    2.216611   3.246948   3.268383   3.387885   3.863309
    18  O    1.645405   2.695812   2.856642   2.747503   3.672428
    19  H    2.272909   3.248317   3.496315   2.933271   3.918034
                   16         17         18         19
    16  O    0.000000
    17  H    0.954185   0.000000
    18  O    2.535229   2.441768   0.000000
    19  H    3.398619   3.334915   0.953400   0.000000
 Symmetry turned off by external request.
 Stoichiometry    C2H10O6Si
 Framework group  C1[X(C2H10O6Si)]
 Deg. of freedom    51
 Full point group                 C1      NOp   1
 Rotational constants (GHZ):           2.4207232           0.7648123           0.7197456

 **********************************************************************

            Population analysis using the SCF Density.

 **********************************************************************

 Alpha  occ. eigenvalues --  -66.30025 -19.27130 -19.25827 -19.25018 -19.23895
 Alpha  occ. eigenvalues --  -19.23768 -19.22552 -10.33367 -10.33283  -5.41733
 Alpha  occ. eigenvalues --   -3.76314  -3.76209  -3.76154  -1.16932  -1.13080
 Alpha  occ. eigenvalues --   -1.12163  -1.09304  -1.08806  -1.07691  -0.84559
 Alpha  occ. eigenvalues --   -0.72679  -0.67462  -0.65052  -0.62113  -0.60551
 Alpha  occ. eigenvalues --   -0.59829  -0.58234  -0.57723  -0.51805  -0.50330
 Alpha  occ. eigenvalues --   -0.48278  -0.47066  -0.46677  -0.45478  -0.44224
 Alpha  occ. eigenvalues --   -0.43301  -0.42569  -0.41755  -0.40283  -0.38942
 Alpha  occ. eigenvalues --   -0.38423  -0.37447
 Alpha virt. eigenvalues --    0.08655   0.09988   0.13269   0.13878   0.15432
 Alpha virt. eigenvalues --    0.16628   0.18438   0.19020   0.19915   0.21264
 Alpha virt. eigenvalues --    0.21880   0.24299   0.24592   0.25847   0.27143
 Alpha virt. eigenvalues --    0.27343   0.29734   0.30737   0.31574   0.32646
 Alpha virt. eigenvalues --    0.33656   0.35130   0.39173   0.39634   0.39859
 Alpha virt. eigenvalues --    0.42663   0.42849   0.44692   0.45192   0.45839
 Alpha virt. eigenvalues --    0.47182   0.47407   0.47703   0.49937   0.50080
 Alpha virt. eigenvalues --    0.51920   0.51997   0.53153   0.54206   0.55390
 Alpha virt. eigenvalues --    0.55850   0.56691   0.58057   0.58319   0.59012
 Alpha virt. eigenvalues --    0.59612   0.60970   0.61773   0.63651   0.65092
 Alpha virt. eigenvalues --    0.65910   0.67641   0.68764   0.69913   0.70693
 Alpha virt. eigenvalues --    0.73516   0.74175   0.75223   0.75770   0.76956
 Alpha virt. eigenvalues --    0.79739   0.80015   0.80915   0.83349   0.84171
 Alpha virt. eigenvalues --    0.85407   0.88211   0.89989   0.91255   0.92226
 Alpha virt. eigenvalues --    0.92640   0.93944   0.95340   0.96395   0.97557
 Alpha virt. eigenvalues --    0.99334   1.01786   1.03074   1.05338   1.05823
 Alpha virt. eigenvalues --    1.06542   1.08452   1.10273   1.12404   1.12887
 Alpha virt. eigenvalues --    1.14426   1.16433   1.17494   1.19202   1.20316
 Alpha virt. eigenvalues --    1.22067   1.22966   1.23872   1.24407   1.26686
 Alpha virt. eigenvalues --    1.28994   1.29616   1.30978   1.32609   1.34180
 Alpha virt. eigenvalues --    1.35583   1.35955   1.36823   1.39088   1.40468
 Alpha virt. eigenvalues --    1.44020   1.45453   1.48135   1.48849   1.49787
 Alpha virt. eigenvalues --    1.50089   1.52929   1.54046   1.55580   1.56936
 Alpha virt. eigenvalues --    1.60276   1.62249   1.64054   1.66907   1.67790
 Alpha virt. eigenvalues --    1.68822   1.73298   1.77396   1.79131   1.81828
 Alpha virt. eigenvalues --    1.82457   1.85349   1.86450   1.89312   1.91170
 Alpha virt. eigenvalues --    1.91570   1.93729   1.94298   1.98319   1.98769
 Alpha virt. eigenvalues --    2.00637   2.04043   2.04460   2.05944   2.07113
 Alpha virt. eigenvalues --    2.09202   2.11511   2.13430   2.16408   2.18437
 Alpha virt. eigenvalues --    2.19469   2.20477   2.21408   2.23063   2.24895
 Alpha virt. eigenvalues --    2.26069   2.27399   2.29123   2.30456   2.32498
 Alpha virt. eigenvalues --    2.35612   2.35703   2.39289   2.44612   2.49447
 Alpha virt. eigenvalues --    2.52780   2.59418   2.59771   2.64445   2.65234
 Alpha virt. eigenvalues --    2.66861   2.71557   2.73080   2.76078   2.79901
 Alpha virt. eigenvalues --    2.80835   2.82569   2.85864   2.87413   2.88728
 Alpha virt. eigenvalues --    2.89832   2.92560   2.93433   2.95195   2.99035
 Alpha virt. eigenvalues --    3.00726   3.02149   3.04086   3.05630   3.07241
 Alpha virt. eigenvalues --    3.08097   3.09748   3.10462   3.12694   3.14361
 Alpha virt. eigenvalues --    3.17710   3.19928   3.23930   3.25598   3.27345
 Alpha virt. eigenvalues --    3.29930   3.30525   3.32087   3.33638   3.35654
 Alpha virt. eigenvalues --    3.36496   3.37711   3.38953   3.39665   3.40905
 Alpha virt. eigenvalues --    3.42330   3.42913   3.43926   3.45597   3.46777
 Alpha virt. eigenvalues --    3.47370   3.49140   3.53375   3.55650   3.56222
 Alpha virt. eigenvalues --    3.58102   3.61494   3.62984   3.64607   3.66816
 Alpha virt. eigenvalues --    3.67273   3.69259   3.71404   3.74787   3.75145
 Alpha virt. eigenvalues --    3.77604   3.77892   3.80780   3.81423   3.82352
 Alpha virt. eigenvalues --    3.83808   3.87144   3.88223   3.91264   3.93038
 Alpha virt. eigenvalues --    3.95295   3.96106   3.97290   3.99098   4.01694
 Alpha virt. eigenvalues --    4.04471   4.06719   4.07736   4.08002   4.10557
 Alpha virt. eigenvalues --    4.10844   4.12170   4.12721   4.15856   4.17461
 Alpha virt. eigenvalues --    4.18525   4.19720   4.20338   4.21081   4.22704
 Alpha virt. eigenvalues --    4.23821   4.25318   4.27933   4.30608   4.33141
 Alpha virt. eigenvalues --    4.33699   4.36888   4.37569   4.37916   4.41892
 Alpha virt. eigenvalues --    4.42961   4.44944   4.47600   4.51428   4.54497
 Alpha virt. eigenvalues --    4.57557   4.61975   4.64561   4.66713   4.71049
 Alpha virt. eigenvalues --    4.74061   4.76248   4.77048   4.82279   4.86635
 Alpha virt. eigenvalues --    4.87758   4.90336   4.93040   4.96837   4.98122
 Alpha virt. eigenvalues --    5.01556   5.02356   5.03873   5.06353   5.09085
 Alpha virt. eigenvalues --    5.09886   5.10782   5.15826   5.18719   5.21687
 Alpha virt. eigenvalues --    5.27624   5.28675   5.30503   5.32437   5.33423
 Alpha virt. eigenvalues --    5.36655   5.38762   5.42700   5.43706   5.45764
 Alpha virt. eigenvalues --    5.46529   5.48965   5.49448   5.53971   5.54972
 Alpha virt. eigenvalues --    5.56448   5.56801   5.58974   5.62600   5.67453
 Alpha virt. eigenvalues --    5.70534   5.73186   5.75651   5.79089   5.80079
 Alpha virt. eigenvalues --    5.86082   5.87005   5.93151   5.97841   6.04972
 Alpha virt. eigenvalues --    6.14219   6.17807   6.22447   6.50288   6.50848
 Alpha virt. eigenvalues --    6.52632   6.55654   6.59569   6.61060   6.61491
 Alpha virt. eigenvalues --    6.63863   6.66628   6.67787   6.68146   6.69740
 Alpha virt. eigenvalues --    6.70335   6.71617   6.72006   6.72883   6.73711
 Alpha virt. eigenvalues --    6.74886   6.76463   6.77554   6.79864   6.80842
 Alpha virt. eigenvalues --    6.81590   6.82033   6.86399   6.89492   6.90020
 Alpha virt. eigenvalues --    6.91400   6.95139   6.96015   6.99987   7.02027
 Alpha virt. eigenvalues --    7.10619   7.17786   7.23674   7.25556   7.29918
 Alpha virt. eigenvalues --    7.32756   7.35758   7.37791   7.40831   7.44409
 Alpha virt. eigenvalues --    7.46571   7.50958   7.56126   7.57409   7.62245
 Alpha virt. eigenvalues --    7.68876   7.71319   7.81769   7.93137  12.32809
 Alpha virt. eigenvalues --   23.44621  23.53505  43.86386  43.95569  44.00864
 Alpha virt. eigenvalues --   44.08972  44.18761  44.34306
          Condensed to atoms (all electrons):
               1          2          3          4          5          6
     1  C    4.905032   0.427167   0.386011   0.237633  -0.010422  -0.060657
     2  H    0.427167   0.563944  -0.028633  -0.032521  -0.002918   0.001377
     3  H    0.386011  -0.028633   0.594904  -0.014050   0.005257  -0.002985
     4  C    0.237633  -0.032521  -0.014050   4.842144   0.431004   0.434286
     5  H   -0.010422  -0.002918   0.005257   0.431004   0.558357  -0.026762
     6  H   -0.060657   0.001377  -0.002985   0.434286  -0.026762   0.582915
     7  O    0.196274  -0.029261  -0.025112  -0.016470  -0.007576   0.005051
     8  H   -0.045916   0.007336  -0.003602  -0.013147  -0.001670   0.002834
     9  O   -0.075263   0.003434   0.001939   0.217960  -0.041755  -0.025691
    10  H    0.005381  -0.000644  -0.000356  -0.021969  -0.009340   0.000132
    11  Si   0.009347  -0.001903  -0.000197  -0.008044  -0.004108   0.000261
    12  O   -0.007912   0.006532  -0.000049   0.001167  -0.000380   0.000005
    13  H    0.000181  -0.000189  -0.000002  -0.000009  -0.000034  -0.000004
    14  O    0.018603  -0.004705  -0.000243  -0.010873   0.004649   0.001062
    15  H   -0.022484  -0.008565   0.002597   0.007808  -0.001029   0.000132
    16  O   -0.008265  -0.000777  -0.000165  -0.022805   0.001424   0.003441
    17  H   -0.000166   0.000862  -0.000053  -0.000015   0.001445  -0.000521
    18  O   -0.000543   0.000108  -0.000006   0.000948  -0.001798  -0.000014
    19  H    0.000001  -0.000031   0.000000   0.000040   0.000004  -0.000005
               7          8          9         10         11         12
     1  C    0.196274  -0.045916  -0.075263   0.005381   0.009347  -0.007912
     2  H   -0.029261   0.007336   0.003434  -0.000644  -0.001903   0.006532
     3  H   -0.025112  -0.003602   0.001939  -0.000356  -0.000197  -0.000049
     4  C   -0.016470  -0.013147   0.217960  -0.021969  -0.008044   0.001167
     5  H   -0.007576  -0.001670  -0.041755  -0.009340  -0.004108  -0.000380
     6  H    0.005051   0.002834  -0.025691   0.000132   0.000261   0.000005
     7  O    7.883452   0.340431  -0.053392   0.001133  -0.000338   0.000205
     8  H    0.340431   0.462494   0.063383  -0.004809   0.000201  -0.000004
     9  O   -0.053392   0.063383   7.921353   0.325771  -0.000262  -0.000002
    10  H    0.001133  -0.004809   0.325771   0.529287  -0.000124   0.000000
    11  Si  -0.000338   0.000201  -0.000262  -0.000124  11.504630   0.461935
    12  O    0.000205  -0.000004  -0.000002   0.000000   0.461935   7.669733
    13  H    0.000009   0.000000  -0.000000  -0.000000  -0.018424   0.327291
    14  O   -0.064893   0.002331  -0.000396   0.000001   0.482718  -0.024110
    15  H    0.100882  -0.004924   0.002201   0.000382  -0.024379  -0.000107
    16  O    0.000733  -0.000053   0.001379   0.000046   0.386804  -0.037687
    17  H   -0.000024   0.000015  -0.000013  -0.000008  -0.019710   0.001156
    18  O   -0.000014   0.000001  -0.000002  -0.000000   0.460247  -0.029988
    19  H    0.000001  -0.000001  -0.000001   0.000000  -0.020934  -0.000431
              13         14         15         16         17         18
     1  C    0.000181   0.018603  -0.022484  -0.008265  -0.000166  -0.000543
     2  H   -0.000189  -0.004705  -0.008565  -0.000777   0.000862   0.000108
     3  H   -0.000002  -0.000243   0.002597  -0.000165  -0.000053  -0.000006
     4  C   -0.000009  -0.010873   0.007808  -0.022805  -0.000015   0.000948
     5  H   -0.000034   0.004649  -0.001029   0.001424   0.001445  -0.001798
     6  H   -0.000004   0.001062   0.000132   0.003441  -0.000521  -0.000014
     7  O    0.000009  -0.064893   0.100882   0.000733  -0.000024  -0.000014
     8  H    0.000000   0.002331  -0.004924  -0.000053   0.000015   0.000001
     9  O   -0.000000  -0.000396   0.002201   0.001379  -0.000013  -0.000002
    10  H   -0.000000   0.000001   0.000382   0.000046  -0.000008  -0.000000
    11  Si  -0.018424   0.482718  -0.024379   0.386804  -0.019710   0.460247
    12  O    0.327291  -0.024110  -0.000107  -0.037687   0.001156  -0.029988
    13  H    0.516489   0.001313  -0.000072  -0.000055  -0.000368  -0.001286
    14  O    0.001313   7.742388   0.343692  -0.024130   0.000582  -0.022866
    15  H   -0.000072   0.343692   0.378764   0.000954  -0.000041  -0.000494
    16  O   -0.000055  -0.024130   0.000954   7.802416   0.339191  -0.035618
    17  H   -0.000368   0.000582  -0.000041   0.339191   0.498183   0.002060
    18  O   -0.001286  -0.022866  -0.000494  -0.035618   0.002060   7.703877
    19  H    0.000134  -0.000672  -0.000078   0.002030  -0.000150   0.339589
              19
     1  C    0.000001
     2  H   -0.000031
     3  H    0.000000
     4  C    0.000040
     5  H    0.000004
     6  H   -0.000005
     7  O    0.000001
     8  H   -0.000001
     9  O   -0.000001
    10  H    0.000000
    11  Si  -0.020934
    12  O   -0.000431
    13  H    0.000134
    14  O   -0.000672
    15  H   -0.000078
    16  O    0.002030
    17  H   -0.000150
    18  O    0.339589
    19  H    0.501589
 Mulliken charges:
               1
     1  C    0.045999
     2  H    0.099386
     3  H    0.084743
     4  C   -0.033087
     5  H    0.105653
     6  H    0.085142
     7  O   -0.331095
     8  H    0.195100
     9  O   -0.340645
    10  H    0.175117
    11  Si   0.792280
    12  O   -0.367355
    13  H    0.175027
    14  O   -0.444454
    15  H    0.224763
    16  O   -0.408863
    17  H    0.177576
    18  O   -0.414200
    19  H    0.178914
 Sum of Mulliken charges =  -0.00000
 Mulliken charges with hydrogens summed into heavy atoms:
               1
     1  C    0.230128
     4  C    0.157708
     7  O   -0.135994
     9  O   -0.165528
    11  Si   0.792280
    12  O   -0.192328
    14  O   -0.219691
    16  O   -0.231288
    18  O   -0.235286
 APT charges:
               1
     1  C   -0.453863
     2  H    0.095801
     3  H    0.550678
     4  C   -0.360192
     5  H    0.062084
     6  H    0.434012
     7  O   -0.527348
     8  H    0.480668
     9  O   -0.700376
    10  H    0.519685
    11  Si   0.475440
    12  O   -0.757651
    13  H    0.695452
    14  O   -0.562124
    15  H    0.271787
    16  O   -0.800637
    17  H    0.601508
    18  O   -0.716874
    19  H    0.691950
 Sum of APT charges =  -0.00000
 APT charges with hydrogens summed into heavy atoms:
               1
     1  C    0.192616
     4  C    0.135905
     7  O   -0.046680
     9  O   -0.180691
    11  Si   0.475440
    12  O   -0.062199
    14  O   -0.290337
    16  O   -0.199129
    18  O   -0.024924
 Electronic spatial extent (au):  <R**2>=           1661.2670
 Charge=             -0.0000 electrons
 Dipole moment (field-independent basis, Debye):
    X=             -0.0208    Y=             -3.1315    Z=              0.0698  Tot=              3.1323
 Quadrupole moment (field-independent basis, Debye-Ang):
   XX=            -55.3170   YY=            -60.6537   ZZ=            -55.1475
   XY=             -1.9813   XZ=             -2.2311   YZ=              2.9615
 Traceless Quadrupole moment (field-independent basis, Debye-Ang):
   XX=              1.7224   YY=             -3.6143   ZZ=              1.8919
   XY=             -1.9813   XZ=             -2.2311   YZ=              2.9615
 Octapole moment (field-independent basis, Debye-Ang**2):
  XXX=            -35.6465  YYY=            -19.4436  ZZZ=             -7.7667  XYY=              4.0741
  XXY=             -5.9872  XXZ=            -13.3751  XZZ=             -9.9013  YZZ=             -4.3677
  YYZ=              0.0662  XYZ=              3.1378
 Hexadecapole moment (field-independent basis, Debye-Ang**3):
 XXXX=          -1360.9347 YYYY=           -341.7439 ZZZZ=           -247.8754 XXXY=            -29.0870
 XXXZ=            -49.1890 YYYX=            -14.8273 YYYZ=             -2.7226 ZZZX=            -13.2545
 ZZZY=             14.5315 XXYY=           -279.8349 XXZZ=           -187.1570 YYZZ=            -85.4069
 XXYZ=             36.4924 YYXZ=            -16.7016 ZZXY=              1.4488
 N-N= 6.461954703703D+02 E-N=-3.242130891002D+03  KE= 8.207382795088D+02
  Exact polarizability:       0.000       0.000       0.000       0.000       0.000       0.000
 Approx polarizability:      74.320       1.728      71.167      -1.757      -0.197      73.513

 This type of calculation cannot be archived.


 THE MORE PROGRESS PHYSICAL SCIENCES MAKE, THE MORE THEY TEND TO ENTER
 THE DOMAIN OF MATHEMATICS, WHICH IS A KIND OF CENTRE TO WHICH THEY ALL
 CONVERGE.  WE MAY EVEN JUDGE THE DEGREE OF PERFECTION TO WHICH A 
 SCIENCE HAS ARRIVED BY THE FACILITY WITH WHICH IT MAY BE SUBMITTED
 TO CALCULATION.

                               -- ADOLPHE QUETELET, 1796-1874
 Job cpu time:       2 days 20 hours 36 minutes 25.2 seconds.
 Elapsed time:       0 days  4 hours 19 minutes 42.5 seconds.
 File lengths (MBytes):  RWF=    288 Int=      0 D2E=      0 Chk=     16 Scr=      1
 Normal termination of Gaussian 16 at Sun Oct 22 23:47:26 2023.
