 Entering Gaussian System, Link 0=/opt/software/gaussian/g16.c01/g16
 Initial command:
 /opt/software/gaussian/g16.c01/l1.exe "/scratch/arhender/17050684/Gau-80972.inp" -scrdir="/scratch/arhender/17050684/"
 Entering Link 1 = /opt/software/gaussian/g16.c01/l1.exe PID=     80974.
  
 Copyright (c) 1988-2019, Gaussian, Inc.  All Rights Reserved.
  
 This is part of the Gaussian(R) 16 program.  It is based on
 the Gaussian(R) 09 system (copyright 2009, Gaussian, Inc.),
 the Gaussian(R) 03 system (copyright 2003, Gaussian, Inc.),
 the Gaussian(R) 98 system (copyright 1998, Gaussian, Inc.),
 the Gaussian(R) 94 system (copyright 1995, Gaussian, Inc.),
 the Gaussian 92(TM) system (copyright 1992, Gaussian, Inc.),
 the Gaussian 90(TM) system (copyright 1990, Gaussian, Inc.),
 the Gaussian 88(TM) system (copyright 1988, Gaussian, Inc.),
 the Gaussian 86(TM) system (copyright 1986, Carnegie Mellon
 University), and the Gaussian 82(TM) system (copyright 1983,
 Carnegie Mellon University). Gaussian is a federally registered
 trademark of Gaussian, Inc.
  
 This software contains proprietary and confidential information,
 including trade secrets, belonging to Gaussian, Inc.
  
 This software is provided under written license and may be
 used, copied, transmitted, or stored only in accord with that
 written license.
  
 The following legend is applicable only to US Government
 contracts under FAR:
  
                    RESTRICTED RIGHTS LEGEND
  
 Use, reproduction and disclosure by the US Government is
 subject to restrictions as set forth in subparagraphs (a)
 and (c) of the Commercial Computer Software - Restricted
 Rights clause in FAR 52.227-19.
  
 Gaussian, Inc.
 340 Quinnipiac St., Bldg. 40, Wallingford CT 06492
  
  
 ---------------------------------------------------------------
 Warning -- This program may not be used in any manner that
 competes with the business of Gaussian, Inc. or will provide
 assistance to any competitor of Gaussian, Inc.  The licensee
 of this program is prohibited from giving any competitor of
 Gaussian, Inc. access to this program.  By using this program,
 the user acknowledges that Gaussian, Inc. is engaged in the
 business of creating and licensing software in the field of
 computational chemistry and represents and warrants to the
 licensee that it is not a competitor of Gaussian, Inc. and that
 it will not use this program in any manner prohibited above.
 ---------------------------------------------------------------
  

 Cite this work as:
 Gaussian 16, Revision C.01,
 M. J. Frisch, G. W. Trucks, H. B. Schlegel, G. E. Scuseria, 
 M. A. Robb, J. R. Cheeseman, G. Scalmani, V. Barone, 
 G. A. Petersson, H. Nakatsuji, X. Li, M. Caricato, A. V. Marenich, 
 J. Bloino, B. G. Janesko, R. Gomperts, B. Mennucci, H. P. Hratchian, 
 J. V. Ortiz, A. F. Izmaylov, J. L. Sonnenberg, D. Williams-Young, 
 F. Ding, F. Lipparini, F. Egidi, J. Goings, B. Peng, A. Petrone, 
 T. Henderson, D. Ranasinghe, V. G. Zakrzewski, J. Gao, N. Rega, 
 G. Zheng, W. Liang, M. Hada, M. Ehara, K. Toyota, R. Fukuda, 
 J. Hasegawa, M. Ishida, T. Nakajima, Y. Honda, O. Kitao, H. Nakai, 
 T. Vreven, K. Throssell, J. A. Montgomery, Jr., J. E. Peralta, 
 F. Ogliaro, M. J. Bearpark, J. J. Heyd, E. N. Brothers, K. N. Kudin, 
 V. N. Staroverov, T. A. Keith, R. Kobayashi, J. Normand, 
 K. Raghavachari, A. P. Rendell, J. C. Burant, S. S. Iyengar, 
 J. Tomasi, M. Cossi, J. M. Millam, M. Klene, C. Adamo, R. Cammi, 
 J. W. Ochterski, R. L. Martin, K. Morokuma, O. Farkas, 
 J. B. Foresman, and D. J. Fox, Gaussian, Inc., Wallingford CT, 2019.
 
 ******************************************
 Gaussian 16:  ES64L-G16RevC.01  3-Jul-2019
                17-Feb-2024 
 ******************************************
 %chk=IRC_PL2attDep_OHLG_reverse.chk
 %mem=1600MB
 %nprocs=4
 Will use up to    4 processors via shared memory.
 ----------------------------------------------------------------------
 # irc=(reverse,calcfc,maxpoints=100,maxcycle=100) wb97xd/def2tzvpp geo
 m=connectivity
 ----------------------------------------------------------------------
 1/6=100,10=4,18=10,22=2,26=3,38=1,42=100,44=3,57=2,172=1/1,23;
 2/12=2,17=6,18=5,29=1,40=1/2;
 3/5=44,7=202,11=2,25=1,30=1,71=2,74=-58,140=1/1,2,3;
 4//1;
 5/5=2,38=5/2;
 8/6=4,10=90,11=11/1;
 11/6=1,8=1,9=11,15=111,16=1/1,2,10;
 10/6=1,13=1/2;
 6/7=2,8=2,9=2,10=2,28=1/1;
 7/10=1,25=1/1,2,3,16;
 1/6=100,10=4,18=10,22=2,26=3,42=100,44=3/23(2);
 2/29=1/2;
 99/5=20/99;
 2/29=1/2;
 3/5=44,7=202,11=2,25=1,30=1,71=2,74=-58,140=1/1,2,3;
 4/5=5,16=3,69=1/1;
 5/5=2,38=5/2;
 8/6=4,10=90,11=11/1;
 11/6=1,8=1,9=11,15=111,16=1/1,2,10;
 10/6=1,13=1/2;
 7/10=1,25=1/1,2,3,16;
 1/6=100,18=10,22=2,26=3,42=100,44=3/23(-8);
 2/29=1/2;
 6/7=2,8=2,9=2,10=2,19=2,28=1/1;
 99/5=20,9=1/99;
 ---------------------------------------------------------
 PL2 OH attack IRC atacking group deprotonated hydroxyl LG
 ---------------------------------------------------------
 Symbolic Z-matrix:
 Charge = -2 Multiplicity = 1
 C                     2.74066  -0.97926   0.89026 
 H                     2.12481  -1.77757   1.32125 
 H                     3.79226  -1.26756   0.92532 
 C                     2.34765  -0.83998  -0.5544 
 H                     2.12159   0.12368  -0.96317 
 H                     2.34507  -1.69744  -1.19462 
 O                     2.60091   0.21508   1.62746 
 O                     4.2265   -0.55006  -1.27345 
 H                     4.46057   0.23251  -0.77226 
 Si                   -0.7668   -0.17902  -0.13019 
 O                    -1.90199  -0.21731   1.19589 
 H                     1.69931   0.55063   1.43034 
 O                     0.46566  -1.18779  -0.27173 
 O                    -1.95133  -1.16402  -1.05741 
 C                    -3.04984  -0.95693   0.96818 
 H                    -3.91977  -0.48344   1.45422 
 H                    -2.95241  -1.9768    1.38335 
 C                    -3.21772  -1.04033  -0.5516 
 H                    -3.85631  -1.89647  -0.83508 
 H                    -3.72791  -0.12056  -0.91 
 O                     0.15692   1.06439   0.88175 
 C                    -0.17136   2.35384   0.5453 
 H                     0.63604   3.05922   0.80121 
 H                    -1.08852   2.69335   1.06817 
 C                    -0.42881   2.3283   -0.96233 
 O                    -1.05928   1.12643  -1.24198 
 H                    -1.05526   3.17643  -1.28485 
 H                     0.53316   2.4027   -1.498 
 
 IRC-IRC-IRC-IRC-IRC-IRC-IRC-IRC-IRC-IRC-IRC-IRC-IRC-IRC-IRC-IRC-IRC-IRC
 ------------------------------------------------------------------------
 INPUT DATA FOR L123
 ------------------------------------------------------------------------
 GENERAL PARAMETERS:
 Rxn path following direction = Reverse
 Maximum points per path      = 100
 Step size                    =   0.100 bohr
 Integration scheme           = HPC                                 
    Redo corrector integration= Yes                                 
    DWI Weight Power          =  2
    DWI will use Hessian update vectors when possible.
    Max correction cycles     = 100
 Initial Hessian              = CalcFC
 Hessian evaluation           = All updating
 Hessian updating method      = Bofill                              
 ------------------------------------------------------------------------
 IRC-IRC-IRC-IRC-IRC-IRC-IRC-IRC-IRC-IRC-IRC-IRC-IRC-IRC-IRC-IRC-IRC-IRC
                          Input orientation:                          
 ---------------------------------------------------------------------
 Center     Atomic      Atomic             Coordinates (Angstroms)
 Number     Number       Type             X           Y           Z
 ---------------------------------------------------------------------
      1          6           0        2.740659   -0.979262    0.890260
      2          1           0        2.124805   -1.777572    1.321247
      3          1           0        3.792262   -1.267560    0.925318
      4          6           0        2.347646   -0.839979   -0.554399
      5          1           0        2.121591    0.123684   -0.963165
      6          1           0        2.345066   -1.697435   -1.194623
      7          8           0        2.600907    0.215075    1.627456
      8          8           0        4.226498   -0.550058   -1.273451
      9          1           0        4.460566    0.232507   -0.772263
     10         14           0       -0.766796   -0.179018   -0.130187
     11          8           0       -1.901991   -0.217314    1.195890
     12          1           0        1.699306    0.550631    1.430344
     13          8           0        0.465656   -1.187789   -0.271732
     14          8           0       -1.951328   -1.164015   -1.057409
     15          6           0       -3.049839   -0.956925    0.968184
     16          1           0       -3.919768   -0.483442    1.454221
     17          1           0       -2.952405   -1.976795    1.383347
     18          6           0       -3.217715   -1.040329   -0.551599
     19          1           0       -3.856309   -1.896474   -0.835077
     20          1           0       -3.727912   -0.120558   -0.909996
     21          8           0        0.156921    1.064386    0.881754
     22          6           0       -0.171364    2.353838    0.545301
     23          1           0        0.636040    3.059221    0.801205
     24          1           0       -1.088515    2.693351    1.068173
     25          6           0       -0.428807    2.328302   -0.962328
     26          8           0       -1.059284    1.126427   -1.241980
     27          1           0       -1.055261    3.176425   -1.284851
     28          1           0        0.533157    2.402701   -1.498002
 ---------------------------------------------------------------------
                    Distance matrix (angstroms):
                    1          2          3          4          5
     1  C    0.000000
     2  H    1.096506   0.000000
     3  H    1.090969   1.788095   0.000000
     4  C    1.503628   2.108741   2.111706   0.000000
     5  H    2.243863   2.972091   2.879769   1.070905   0.000000
     6  H    2.240313   2.526764   2.602560   1.070105   1.849321
     7  O    1.410471   2.071492   2.027444   2.436754   2.636174
     8  O    2.659620   3.557578   2.353286   2.032529   2.231779
     9  H    2.681501   3.725450   2.361909   2.379521   2.349274
    10  Si   3.739511   3.608794   4.804584   3.211942   3.021301
    11  O    4.714676   4.320325   5.796615   4.637956   4.578975
    12  H    1.927869   2.369279   2.818037   2.508654   2.467690
    13  O    2.563074   2.374490   3.536326   1.934621   2.222647
    14  O    5.083531   4.759130   6.077068   4.340414   4.272671
    15  C    5.791065   5.251196   6.849283   5.609348   5.625079
    16  H    6.702625   6.182986   7.769812   6.591066   6.535318
    17  H    5.800792   5.081497   6.797304   5.756540   5.971898
    18  C    6.130653   5.709080   7.167475   5.568967   5.480192
    19  H    6.880265   6.359056   7.873701   6.299525   6.311318
    20  H    6.769099   6.479077   7.825408   6.128329   5.854841
    21  O    3.294279   3.484601   4.319210   3.238583   2.854571
    22  C    4.439418   4.789889   5.382311   4.213694   3.536481
    23  H    4.554854   5.087380   5.357068   4.468894   3.733261
    24  H    5.308702   5.511681   6.287385   5.188869   4.586317
    25  C    4.941414   5.347322   5.857547   4.232387   3.371182
    26  O    4.839415   5.014157   5.828023   3.993331   3.346819
    27  H    6.034058   6.437907   6.937747   5.314587   4.417590
    28  H    4.691965   5.287361   5.474035   3.833762   2.828974
                    6          7          8          9         10
     6  H    0.000000
     7  O    3.418666   0.000000
     8  O    2.205102   3.412219   0.000000
     9  H    2.894547   3.035998   0.958324   0.000000
    10  Si   3.622471   3.819168   5.135923   5.282701   0.000000
    11  O    5.093408   4.544150   6.615644   6.675185   1.746028
    12  H    3.515858   0.982006   3.861182   3.546440   3.008206
    13  O    2.154913   3.183432   3.943865   4.269318   1.598935
    14  O    4.331555   5.461981   6.212017   6.568407   1.798076
    15  C    5.859274   5.808541   7.624667   7.800647   2.650253
    16  H    6.909291   6.560270   8.591058   8.700564   3.541787
    17  H    5.898065   5.975212   7.786578   8.029932   3.209311
    18  C    5.638244   6.338823   7.495181   7.786193   2.631815
    19  H    6.214977   7.226226   8.205899   8.585273   3.604388
    20  H    6.280813   6.826805   7.974284   8.197243   3.062634
    21  O    4.089862   2.692669   4.879836   4.684993   1.850225
    22  C    5.076669   3.664813   5.575093   5.262204   2.688156
    23  H    5.434140   3.554231   5.497498   5.009303   3.649881
    24  H    6.015707   4.479563   6.652238   6.343127   3.128909
    25  C    4.894373   4.511305   5.482118   5.323011   2.663334
    26  O    4.423351   4.739327   5.545366   5.611459   1.739488
    27  H    5.943473   5.533416   6.464038   6.273257   3.560261
    28  H    4.492902   4.339330   4.733918   4.545435   3.197822
                   11         12         13         14         15
    11  O    0.000000
    12  H    3.689722   0.000000
    13  O    2.949829   2.727830   0.000000
    14  O    2.444593   4.738782   2.541587   0.000000
    15  C    1.384352   5.004068   3.734889   2.313577   0.000000
    16  H    2.051581   5.713481   4.765182   3.262855   1.103265
    17  H    2.057737   5.294196   3.878783   2.760445   1.105436
    18  C    2.337135   5.535011   3.696930   1.369262   1.531300
    19  H    3.280818   6.479607   4.415764   2.053017   2.187441
    20  H    2.788925   5.948309   4.374057   2.065619   2.164914
    21  O    2.445517   1.715764   2.549145   3.629165   3.791633
    22  C    3.166885   2.744861   3.690049   4.255848   4.407448
    23  H    4.163299   2.796314   4.383756   5.290051   5.453716
    24  H    3.024901   3.534737   4.390221   4.487964   4.145034
    25  C    3.648059   3.662493   3.693221   3.810956   4.624868
    26  O    2.908437   3.883642   2.936396   2.464941   3.631458
    27  H    4.288181   4.674903   4.731381   4.437802   5.112640
    28  H    4.477888   3.655855   3.794722   4.369010   5.496091
                   16         17         18         19         20
    16  H    0.000000
    17  H    1.780707   0.000000
    18  C    2.196888   2.165958   0.000000
    19  H    2.691017   2.396852   1.105055   0.000000
    20  H    2.399587   3.050647   1.111183   1.782127   0.000000
    21  O    4.398054   4.378160   4.227587   5.274487   4.439188
    22  C    4.788197   5.214489   4.690822   5.792186   4.570510
    23  H    5.807950   6.211061   5.786866   6.886039   5.664210
    24  H    4.272826   5.038222   4.593204   5.687665   4.335626
    25  C    5.092389   5.514036   4.392537   5.441755   4.108984
    26  O    4.247770   4.483998   3.135328   4.138460   2.964247
    27  H    5.394677   6.105253   4.795298   5.812269   4.260713
    28  H    6.072395   6.295340   5.178723   6.179789   4.986912
                   21         22         23         24         25
    21  O    0.000000
    22  C    1.372464   0.000000
    23  H    2.053146   1.102249   0.000000
    24  H    2.058978   1.108977   1.783037   0.000000
    25  C    2.311103   1.529665   2.185907   2.165966   0.000000
    26  O    2.448111   2.342928   3.283964   2.791579   1.385716
    27  H    3.259489   2.192574   2.688097   2.402330   1.102623
    28  H    2.756062   2.161903   2.393315   3.049517   1.103565
                   26         27         28
    26  O    0.000000
    27  H    2.050450   0.000000
    28  H    2.056767   1.779650   0.000000
 Symmetry turned off by external request.
 Stoichiometry    C6H14O7Si(2-)
 Framework group  C1[X(C6H14O7Si)]
 Deg. of freedom    78
 Full point group                 C1      NOp   1
 Rotational constants (GHZ):           0.9653378           0.4000347           0.3693727
 Standard basis: def2TZVPP (5D, 7F)
   641 basis functions,   970 primitive gaussians,   726 cartesian basis functions
    61 alpha electrons       61 beta electrons
       nuclear repulsion energy      1201.4664463419 Hartrees.
 NAtoms=   28 NActive=   28 NUniq=   28 SFac= 1.00D+00 NAtFMM=   60 NAOKFM=F Big=F
 Integral buffers will be    131072 words long.
 Raffenetti 2 integral format.
 Two-electron integral symmetry is turned off.
 Nuclear repulsion after empirical dispersion term =     1201.4483258145 Hartrees.
 One-electron integrals computed using PRISM.
   1 Symmetry operations used in ECPInt.
 ECPInt:  NShTT=   29161 NPrTT=   80163 LenC2=   26408 LenP2D=   54458.
 LDataN:  DoStor=T MaxTD1= 6 Len=  172
 NBasis=   641 RedAO= T EigKep=  2.06D-04  NBF=   641
 NBsUse=   641 1.00D-06 EigRej= -1.00D+00 NBFU=   641
 ExpMin= 7.01D-02 ExpMax= 4.48D+04 ExpMxC= 1.53D+03 IAcc=3 IRadAn=         5 AccDes= 0.00D+00
 Harris functional with IExCor= 4639 and IRadAn=       5 diagonalized for initial guess.
 HarFok:  IExCor= 4639 AccDes= 0.00D+00 IRadAn=         5 IDoV= 1 UseB2=F ITyADJ=14
 ICtDFT=  3500011 ScaDFX=  1.000000  1.000000  1.000000  1.000000
 FoFCou: FMM=F IPFlag=           0 FMFlag=      100000 FMFlg1=           0
         NFxFlg=           0 DoJE=T BraDBF=F KetDBF=T FulRan=T
         wScrn=  0.000000 ICntrl=       500 IOpCl=  0 I1Cent=   200000004 NGrid=           0
         NMat0=    1 NMatS0=      1 NMatT0=    0 NMatD0=    1 NMtDS0=    0 NMtDT0=    0
 Symmetry not used in FoFCou.
 Requested convergence on RMS density matrix=1.00D-08 within 128 cycles.
 Requested convergence on MAX density matrix=1.00D-06.
 Requested convergence on             energy=1.00D-06.
 No special actions if energy rises.
 Integral accuracy reduced to 1.0D-05 until final iterations.
 Initial convergence to 1.0D-05 achieved.  Increase integral accuracy.
 SCF Done:  E(RwB97XD) =  -1053.27378101     A.U. after   15 cycles
            NFock= 15  Conv=0.61D-08     -V/T= 2.0036
 DoSCS=F DFT=T ScalE2(SS,OS)=  1.000000  1.000000
 Range of M.O.s used for correlation:     1   641
 NBasis=   641 NAE=    61 NBE=    61 NFC=     0 NFV=     0
 NROrb=    641 NOA=    61 NOB=    61 NVA=   580 NVB=   580

 **** Warning!!: The largest alpha MO coefficient is  0.14446228D+02

   1 Symmetry operations used in ECPInt.
 ECPInt:  NShTT=   29161 NPrTT=   80163 LenC2=   26408 LenP2D=   54458.
 LDataN:  DoStor=T MaxTD1= 7 Len=  274
 Number of processors reduced to   2 by ecpmxn.
 Symmetrizing basis deriv contribution to polar:
 IMax=3 JMax=2 DiffMx= 0.00D+00
 G2DrvN: will do    29 centers at a time, making    1 passes.
 Calling FoFCou, ICntrl=  3107 FMM=F I1Cent=   0 AccDes= 0.00D+00.
 End of G2Drv F.D. properties file   721 does not exist.
 End of G2Drv F.D. properties file   722 does not exist.
 End of G2Drv F.D. properties file   788 does not exist.
          IDoAtm=1111111111111111111111111111
          Differentiating once with respect to nuclear coordinates.
 CalDSu exits because no D1Ps are significant.
          There are    87 degrees of freedom in the 1st order CPHF.  IDoFFX=6 NUNeed=     0.
     81 vectors produced by pass  0 Test12= 4.07D-14 1.15D-09 XBig12= 8.94D-02 7.50D-02.
 AX will form    44 AO Fock derivatives at one time.
     81 vectors produced by pass  1 Test12= 4.07D-14 1.15D-09 XBig12= 1.93D-02 1.17D-02.
     81 vectors produced by pass  2 Test12= 4.07D-14 1.15D-09 XBig12= 4.60D-04 3.37D-03.
     81 vectors produced by pass  3 Test12= 4.07D-14 1.15D-09 XBig12= 6.32D-06 3.86D-04.
     81 vectors produced by pass  4 Test12= 4.07D-14 1.15D-09 XBig12= 6.21D-08 3.06D-05.
     81 vectors produced by pass  5 Test12= 4.07D-14 1.15D-09 XBig12= 5.77D-10 1.88D-06.
     81 vectors produced by pass  6 Test12= 4.07D-14 1.15D-09 XBig12= 4.22D-12 1.73D-07.
     42 vectors produced by pass  7 Test12= 4.07D-14 1.15D-09 XBig12= 3.30D-14 1.85D-08.
      6 vectors produced by pass  8 Test12= 4.07D-14 1.15D-09 XBig12= 1.55D-15 2.65D-09.
      2 vectors produced by pass  9 Test12= 4.07D-14 1.15D-09 XBig12= 2.27D-15 2.53D-09.
 InvSVY:  IOpt=1 It=  1 EMax= 1.94D-16
 Solved reduced A of dimension   617 with    87 vectors.
 End of Minotr F.D. properties file   721 does not exist.
 End of Minotr F.D. properties file   722 does not exist.
 End of Minotr F.D. properties file   788 does not exist.

 **********************************************************************

            Population analysis using the SCF Density.

 **********************************************************************

 Alpha  occ. eigenvalues --  -65.99067 -18.95477 -18.94780 -18.94741 -18.93133
 Alpha  occ. eigenvalues --  -18.92332 -18.86551 -18.86395 -10.06938 -10.06820
 Alpha  occ. eigenvalues --  -10.06460 -10.06396 -10.05654 -10.04651  -5.10170
 Alpha  occ. eigenvalues --   -3.44823  -3.44699  -3.44543  -0.85867  -0.83833
 Alpha  occ. eigenvalues --   -0.83231  -0.79363  -0.77973  -0.69418  -0.68534
 Alpha  occ. eigenvalues --   -0.55930  -0.54304  -0.54174  -0.43580  -0.42765
 Alpha  occ. eigenvalues --   -0.42321  -0.33716  -0.32094  -0.31448  -0.31141
 Alpha  occ. eigenvalues --   -0.29911  -0.29388  -0.27173  -0.25421  -0.25017
 Alpha  occ. eigenvalues --   -0.23915  -0.22341  -0.22114  -0.21617  -0.19979
 Alpha  occ. eigenvalues --   -0.17333  -0.14756  -0.13570  -0.12094  -0.11583
 Alpha  occ. eigenvalues --   -0.11102  -0.10121  -0.09148  -0.08585  -0.07890
 Alpha  occ. eigenvalues --   -0.06483  -0.05661  -0.05274  -0.03129  -0.02059
 Alpha  occ. eigenvalues --   -0.00390
 Alpha virt. eigenvalues --    0.33971   0.35136   0.37367   0.37810   0.38245
 Alpha virt. eigenvalues --    0.38586   0.38966   0.39308   0.40544   0.41818
 Alpha virt. eigenvalues --    0.42602   0.43599   0.43688   0.44367   0.45792
 Alpha virt. eigenvalues --    0.47142   0.47814   0.48630   0.49340   0.49449
 Alpha virt. eigenvalues --    0.50330   0.51377   0.52475   0.53899   0.54457
 Alpha virt. eigenvalues --    0.55202   0.56424   0.57873   0.58510   0.59272
 Alpha virt. eigenvalues --    0.61314   0.62260   0.62596   0.63911   0.64399
 Alpha virt. eigenvalues --    0.65032   0.66193   0.66800   0.67942   0.68009
 Alpha virt. eigenvalues --    0.68898   0.70179   0.70524   0.70937   0.71412
 Alpha virt. eigenvalues --    0.71859   0.72333   0.73326   0.73539   0.73979
 Alpha virt. eigenvalues --    0.74236   0.74918   0.75246   0.76243   0.76567
 Alpha virt. eigenvalues --    0.76887   0.77728   0.77854   0.78078   0.79225
 Alpha virt. eigenvalues --    0.79741   0.81337   0.81629   0.82434   0.83196
 Alpha virt. eigenvalues --    0.84256   0.84950   0.85538   0.86603   0.86924
 Alpha virt. eigenvalues --    0.87888   0.89447   0.90140   0.91003   0.92047
 Alpha virt. eigenvalues --    0.93069   0.94181   0.95350   0.95794   0.96962
 Alpha virt. eigenvalues --    0.97902   0.98883   1.00985   1.01096   1.02625
 Alpha virt. eigenvalues --    1.05440   1.06176   1.06621   1.07088   1.07770
 Alpha virt. eigenvalues --    1.08723   1.08876   1.10991   1.11544   1.12377
 Alpha virt. eigenvalues --    1.13325   1.13708   1.14579   1.16116   1.16363
 Alpha virt. eigenvalues --    1.17293   1.18848   1.19507   1.20081   1.21404
 Alpha virt. eigenvalues --    1.22572   1.23136   1.23645   1.24196   1.24493
 Alpha virt. eigenvalues --    1.26594   1.27706   1.28924   1.29583   1.30724
 Alpha virt. eigenvalues --    1.31301   1.31966   1.33183   1.33647   1.34054
 Alpha virt. eigenvalues --    1.34492   1.35613   1.36877   1.37658   1.38120
 Alpha virt. eigenvalues --    1.39009   1.39603   1.41104   1.41862   1.42330
 Alpha virt. eigenvalues --    1.42577   1.43909   1.44263   1.45629   1.47056
 Alpha virt. eigenvalues --    1.47156   1.48326   1.49317   1.50439   1.51200
 Alpha virt. eigenvalues --    1.52613   1.53080   1.54193   1.55214   1.55827
 Alpha virt. eigenvalues --    1.56765   1.57542   1.58398   1.59861   1.60713
 Alpha virt. eigenvalues --    1.61538   1.62765   1.62979   1.65006   1.65607
 Alpha virt. eigenvalues --    1.66225   1.67417   1.67659   1.68862   1.69983
 Alpha virt. eigenvalues --    1.70353   1.70737   1.71226   1.74024   1.74601
 Alpha virt. eigenvalues --    1.75023   1.75829   1.76344   1.77887   1.78430
 Alpha virt. eigenvalues --    1.79635   1.81262   1.83393   1.84001   1.84846
 Alpha virt. eigenvalues --    1.86088   1.86918   1.87324   1.88228   1.89465
 Alpha virt. eigenvalues --    1.91014   1.92071   1.92974   1.93198   1.93839
 Alpha virt. eigenvalues --    1.97186   1.98951   1.99933   2.01943   2.03645
 Alpha virt. eigenvalues --    2.03837   2.05605   2.07027   2.11176   2.12694
 Alpha virt. eigenvalues --    2.14176   2.14673   2.15679   2.17120   2.18895
 Alpha virt. eigenvalues --    2.22128   2.23320   2.24363   2.25400   2.26219
 Alpha virt. eigenvalues --    2.27798   2.30969   2.31475   2.32408   2.34308
 Alpha virt. eigenvalues --    2.34872   2.35957   2.37623   2.37679   2.39325
 Alpha virt. eigenvalues --    2.40519   2.40893   2.43032   2.43756   2.44919
 Alpha virt. eigenvalues --    2.46631   2.47715   2.49735   2.51217   2.52704
 Alpha virt. eigenvalues --    2.54978   2.55921   2.57525   2.59250   2.60560
 Alpha virt. eigenvalues --    2.61492   2.63087   2.64382   2.67253   2.67587
 Alpha virt. eigenvalues --    2.69089   2.70979   2.71959   2.75604   2.77635
 Alpha virt. eigenvalues --    2.78378   2.79050   2.79899   2.82346   2.86694
 Alpha virt. eigenvalues --    2.87529   2.89306   2.92712   2.93121   2.95592
 Alpha virt. eigenvalues --    2.96415   2.96682   2.97638   2.98677   2.99320
 Alpha virt. eigenvalues --    3.00217   3.01415   3.02730   3.05454   3.06994
 Alpha virt. eigenvalues --    3.07763   3.09102   3.10122   3.11392   3.12084
 Alpha virt. eigenvalues --    3.12951   3.14457   3.15180   3.15974   3.16487
 Alpha virt. eigenvalues --    3.17952   3.19219   3.19515   3.20029   3.21725
 Alpha virt. eigenvalues --    3.22496   3.26482   3.26884   3.28443   3.30060
 Alpha virt. eigenvalues --    3.30267   3.31842   3.32214   3.33568   3.33807
 Alpha virt. eigenvalues --    3.34499   3.35120   3.37052   3.38295   3.38485
 Alpha virt. eigenvalues --    3.40453   3.41041   3.42287   3.42457   3.42860
 Alpha virt. eigenvalues --    3.44440   3.45308   3.46847   3.47629   3.47669
 Alpha virt. eigenvalues --    3.48401   3.48627   3.49386   3.50968   3.52378
 Alpha virt. eigenvalues --    3.54146   3.55069   3.55746   3.56549   3.57134
 Alpha virt. eigenvalues --    3.57576   3.59565   3.61369   3.61963   3.63585
 Alpha virt. eigenvalues --    3.64936   3.66267   3.66864   3.68577   3.69895
 Alpha virt. eigenvalues --    3.73006   3.73154   3.74113   3.74153   3.75152
 Alpha virt. eigenvalues --    3.76669   3.78183   3.79339   3.80017   3.81587
 Alpha virt. eigenvalues --    3.82916   3.83836   3.85928   3.87565   3.88081
 Alpha virt. eigenvalues --    3.88753   3.90043   3.90567   3.92828   3.94491
 Alpha virt. eigenvalues --    3.96156   3.96655   3.97863   3.98382   3.99444
 Alpha virt. eigenvalues --    4.00262   4.01441   4.02235   4.03255   4.03538
 Alpha virt. eigenvalues --    4.04447   4.06322   4.07392   4.07661   4.08780
 Alpha virt. eigenvalues --    4.09855   4.10325   4.11179   4.12052   4.13486
 Alpha virt. eigenvalues --    4.14317   4.15850   4.16965   4.17619   4.18227
 Alpha virt. eigenvalues --    4.18849   4.21077   4.22735   4.24001   4.26431
 Alpha virt. eigenvalues --    4.27381   4.29447   4.29915   4.30320   4.30984
 Alpha virt. eigenvalues --    4.32010   4.33222   4.34159   4.36349   4.36683
 Alpha virt. eigenvalues --    4.37387   4.37936   4.40581   4.43688   4.44591
 Alpha virt. eigenvalues --    4.45378   4.47195   4.47344   4.48496   4.49142
 Alpha virt. eigenvalues --    4.50232   4.50471   4.51802   4.52774   4.53693
 Alpha virt. eigenvalues --    4.54619   4.56832   4.57647   4.58995   4.59357
 Alpha virt. eigenvalues --    4.60197   4.61412   4.61932   4.62391   4.67213
 Alpha virt. eigenvalues --    4.68050   4.68198   4.69969   4.70683   4.72403
 Alpha virt. eigenvalues --    4.74941   4.75808   4.76341   4.81424   4.82538
 Alpha virt. eigenvalues --    4.84714   4.87368   4.89235   4.90920   4.91964
 Alpha virt. eigenvalues --    4.92403   4.94530   4.95433   4.99194   4.99506
 Alpha virt. eigenvalues --    5.01015   5.02617   5.03996   5.07336   5.08402
 Alpha virt. eigenvalues --    5.10516   5.11195   5.12644   5.13076   5.14340
 Alpha virt. eigenvalues --    5.15671   5.16910   5.18154   5.19401   5.20269
 Alpha virt. eigenvalues --    5.21168   5.24432   5.24610   5.25448   5.26809
 Alpha virt. eigenvalues --    5.27804   5.29754   5.31996   5.34523   5.35769
 Alpha virt. eigenvalues --    5.36753   5.37604   5.39001   5.40937   5.41250
 Alpha virt. eigenvalues --    5.44632   5.45294   5.48695   5.50043   5.52924
 Alpha virt. eigenvalues --    5.55221   5.56220   5.58958   5.61503   5.61924
 Alpha virt. eigenvalues --    5.62756   5.64179   5.65362   5.67649   5.68440
 Alpha virt. eigenvalues --    5.69948   5.70250   5.71299   5.75355   5.76383
 Alpha virt. eigenvalues --    5.76623   5.77044   5.77431   5.79484   5.80713
 Alpha virt. eigenvalues --    5.82388   5.83009   5.83095   5.85180   5.85214
 Alpha virt. eigenvalues --    5.88157   5.88952   5.91405   5.92038   5.93038
 Alpha virt. eigenvalues --    5.93576   5.94945   5.95521   5.97111   5.97721
 Alpha virt. eigenvalues --    5.99315   6.00199   6.01142   6.04046   6.07702
 Alpha virt. eigenvalues --    6.08244   6.09065   6.09832   6.15773   6.15929
 Alpha virt. eigenvalues --    6.24135   6.26429   6.33474   6.35745   6.38902
 Alpha virt. eigenvalues --    6.42324   6.42567   6.45716   6.46002   6.46539
 Alpha virt. eigenvalues --    6.47170   6.50652   6.51819   6.54515   6.59109
 Alpha virt. eigenvalues --    6.61197   6.67919   6.83618   6.88048   6.93221
 Alpha virt. eigenvalues --    6.96156   6.96384   6.99074   7.00725   7.01757
 Alpha virt. eigenvalues --    7.04512   7.05247   7.06461   7.09103   7.09705
 Alpha virt. eigenvalues --    7.11089   7.11916   7.12262   7.13664   7.16615
 Alpha virt. eigenvalues --    7.19513   7.21371   7.28321   7.29489   7.31717
 Alpha virt. eigenvalues --    7.33198   7.34209   7.35124   7.39688   7.41034
 Alpha virt. eigenvalues --    7.45344   7.47887   7.50186   7.53258   7.59490
 Alpha virt. eigenvalues --    7.60562   7.65725   7.71623   7.72810   7.76726
 Alpha virt. eigenvalues --    7.83366   7.84603   7.88467   7.90368   8.03658
 Alpha virt. eigenvalues --    8.07159  12.71903  23.62555  23.65530  23.71128
 Alpha virt. eigenvalues --   23.78060  23.79105  23.85297  44.04811  44.32132
 Alpha virt. eigenvalues --   44.46651  44.50900  44.57821  44.62096  44.73326
          Condensed to atoms (all electrons):
               1          2          3          4          5          6
     1  C    5.018122   0.370445   0.240641   0.077550  -0.035719   0.004456
     2  H    0.370445   0.743618  -0.049977  -0.064064   0.009142   0.006266
     3  H    0.240641  -0.049977   0.754045   0.040587  -0.007760  -0.004543
     4  C    0.077550  -0.064064   0.040587   5.146814   0.396132   0.371757
     5  H   -0.035719   0.009142  -0.007760   0.396132   0.562616  -0.004986
     6  H    0.004456   0.006266  -0.004543   0.371757  -0.004986   0.574816
     7  O    0.287654  -0.047972  -0.028110  -0.072895   0.003885   0.005925
     8  O    0.006314   0.009842   0.020811  -0.002058   0.011418  -0.014723
     9  H    0.003491   0.000074  -0.004789  -0.041744   0.005885   0.004572
    10  Si   0.008518  -0.010097   0.001564  -0.020073  -0.021866  -0.000075
    11  O   -0.000289  -0.000074  -0.000012  -0.000325   0.000088   0.000000
    12  H   -0.061041  -0.005036   0.008239   0.011623   0.003090  -0.000599
    13  O   -0.003115   0.005309   0.004157   0.045387  -0.031396  -0.030525
    14  O    0.000246  -0.000141   0.000005   0.000540  -0.000103  -0.000184
    15  C    0.000154  -0.000048   0.000004  -0.000002  -0.000139  -0.000002
    16  H   -0.000003  -0.000007  -0.000000   0.000003  -0.000003  -0.000001
    17  H    0.000025   0.000022   0.000001   0.000051   0.000012   0.000003
    18  C   -0.000022  -0.000104  -0.000001  -0.000253  -0.000048   0.000020
    19  H   -0.000002   0.000002   0.000000   0.000017  -0.000002  -0.000002
    20  H    0.000006  -0.000005   0.000000   0.000030   0.000002  -0.000001
    21  O   -0.009010   0.001538  -0.000592   0.006233   0.007826   0.001030
    22  C    0.002141   0.000655  -0.000205  -0.007116   0.003621   0.000560
    23  H    0.000305   0.000030   0.000022   0.000394   0.000114   0.000007
    24  H   -0.000199   0.000024  -0.000005   0.000356   0.000213   0.000021
    25  C   -0.002238   0.000013   0.000242   0.007795  -0.003787  -0.000601
    26  O   -0.000692   0.000104  -0.000015  -0.004570   0.004761  -0.000156
    27  H   -0.000080   0.000004   0.000002  -0.000038   0.000410   0.000000
    28  H   -0.000068  -0.000042  -0.000020   0.003330  -0.002632   0.000294
               7          8          9         10         11         12
     1  C    0.287654   0.006314   0.003491   0.008518  -0.000289  -0.061041
     2  H   -0.047972   0.009842   0.000074  -0.010097  -0.000074  -0.005036
     3  H   -0.028110   0.020811  -0.004789   0.001564  -0.000012   0.008239
     4  C   -0.072895  -0.002058  -0.041744  -0.020073  -0.000325   0.011623
     5  H    0.003885   0.011418   0.005885  -0.021866   0.000088   0.003090
     6  H    0.005925  -0.014723   0.004572  -0.000075   0.000000  -0.000599
     7  O    8.028213  -0.002508   0.004954   0.006062  -0.000080   0.352212
     8  O   -0.002508   8.440629   0.277178  -0.000511   0.000000  -0.001883
     9  H    0.004954   0.277178   0.649011  -0.000686  -0.000000   0.000399
    10  Si   0.006062  -0.000511  -0.000686  11.587718   0.347809  -0.006916
    11  O   -0.000080   0.000000  -0.000000   0.347809   8.033668   0.000656
    12  H    0.352212  -0.001883   0.000399  -0.006916   0.000656   0.395368
    13  O   -0.003431   0.006242  -0.001315   0.584478  -0.020064  -0.003928
    14  O   -0.000006   0.000000  -0.000000   0.374335  -0.035795  -0.000049
    15  C   -0.000009  -0.000001   0.000000  -0.067434   0.373909  -0.000065
    16  H    0.000000   0.000000  -0.000000  -0.002851  -0.050713  -0.000005
    17  H   -0.000003  -0.000000   0.000000   0.014312  -0.060042   0.000030
    18  C    0.000015  -0.000000   0.000000  -0.071161  -0.102372  -0.000032
    19  H    0.000000   0.000000  -0.000000   0.002605   0.006075  -0.000004
    20  H   -0.000000   0.000000  -0.000000   0.011167   0.008235   0.000010
    21  O   -0.041132  -0.000014  -0.000012   0.253776  -0.042876   0.073734
    22  C    0.006446   0.000135   0.000098  -0.035350   0.003383  -0.005916
    23  H    0.002784  -0.000011   0.000008   0.008366  -0.000448  -0.007641
    24  H   -0.000285   0.000000   0.000001  -0.016529   0.008496   0.001079
    25  C   -0.003320  -0.000603  -0.000033  -0.045251  -0.003162   0.006128
    26  O    0.000009   0.000019  -0.000002   0.343643  -0.019377   0.000904
    27  H    0.000002  -0.000005   0.000001  -0.003697   0.000431  -0.000014
    28  H    0.000195   0.000100   0.000111  -0.006786  -0.000408  -0.000357
              13         14         15         16         17         18
     1  C   -0.003115   0.000246   0.000154  -0.000003   0.000025  -0.000022
     2  H    0.005309  -0.000141  -0.000048  -0.000007   0.000022  -0.000104
     3  H    0.004157   0.000005   0.000004  -0.000000   0.000001  -0.000001
     4  C    0.045387   0.000540  -0.000002   0.000003   0.000051  -0.000253
     5  H   -0.031396  -0.000103  -0.000139  -0.000003   0.000012  -0.000048
     6  H   -0.030525  -0.000184  -0.000002  -0.000001   0.000003   0.000020
     7  O   -0.003431  -0.000006  -0.000009   0.000000  -0.000003   0.000015
     8  O    0.006242   0.000000  -0.000001   0.000000  -0.000000  -0.000000
     9  H   -0.001315  -0.000000   0.000000  -0.000000   0.000000   0.000000
    10  Si   0.584478   0.374335  -0.067434  -0.002851   0.014312  -0.071161
    11  O   -0.020064  -0.035795   0.373909  -0.050713  -0.060042  -0.102372
    12  H   -0.003928  -0.000049  -0.000065  -0.000005   0.000030  -0.000032
    13  O    8.196634  -0.035618  -0.000863  -0.000235   0.000974   0.001507
    14  O   -0.035618   8.086116  -0.119329   0.008723   0.014505   0.376017
    15  C   -0.000863  -0.119329   4.807606   0.323883   0.372332   0.321854
    16  H   -0.000235   0.008723   0.323883   0.865293  -0.102696  -0.011758
    17  H    0.000974   0.014505   0.372332  -0.102696   0.839989  -0.069042
    18  C    0.001507   0.376017   0.321854  -0.011758  -0.069042   4.768948
    19  H    0.000057  -0.052254  -0.015908   0.012946  -0.022363   0.333548
    20  H   -0.000455  -0.060323  -0.090706  -0.015018   0.023598   0.349322
    21  O   -0.052874   0.000412   0.002962  -0.000015  -0.000180  -0.000305
    22  C   -0.001431  -0.000510   0.001210  -0.000165   0.000214  -0.001444
    23  H   -0.000536   0.000000   0.000063  -0.000027   0.000003  -0.000012
    24  H   -0.000550   0.000071  -0.000417  -0.000332   0.000125  -0.000300
    25  C   -0.004233   0.000969  -0.000467   0.000382  -0.000078  -0.000471
    26  O   -0.023245  -0.046043  -0.004701   0.000217  -0.000264  -0.006965
    27  H   -0.000379  -0.000044   0.000342  -0.000030   0.000011   0.000200
    28  H    0.000452  -0.000321  -0.000176   0.000003  -0.000007  -0.000078
              19         20         21         22         23         24
     1  C   -0.000002   0.000006  -0.009010   0.002141   0.000305  -0.000199
     2  H    0.000002  -0.000005   0.001538   0.000655   0.000030   0.000024
     3  H    0.000000   0.000000  -0.000592  -0.000205   0.000022  -0.000005
     4  C    0.000017   0.000030   0.006233  -0.007116   0.000394   0.000356
     5  H   -0.000002   0.000002   0.007826   0.003621   0.000114   0.000213
     6  H   -0.000002  -0.000001   0.001030   0.000560   0.000007   0.000021
     7  O    0.000000  -0.000000  -0.041132   0.006446   0.002784  -0.000285
     8  O    0.000000   0.000000  -0.000014   0.000135  -0.000011   0.000000
     9  H   -0.000000  -0.000000  -0.000012   0.000098   0.000008   0.000001
    10  Si   0.002605   0.011167   0.253776  -0.035350   0.008366  -0.016529
    11  O    0.006075   0.008235  -0.042876   0.003383  -0.000448   0.008496
    12  H   -0.000004   0.000010   0.073734  -0.005916  -0.007641   0.001079
    13  O    0.000057  -0.000455  -0.052874  -0.001431  -0.000536  -0.000550
    14  O   -0.052254  -0.060323   0.000412  -0.000510   0.000000   0.000071
    15  C   -0.015908  -0.090706   0.002962   0.001210   0.000063  -0.000417
    16  H    0.012946  -0.015018  -0.000015  -0.000165  -0.000027  -0.000332
    17  H   -0.022363   0.023598  -0.000180   0.000214   0.000003   0.000125
    18  C    0.333548   0.349322  -0.000305  -0.001444  -0.000012  -0.000300
    19  H    0.869529  -0.108703  -0.000007  -0.000053  -0.000001  -0.000004
    20  H   -0.108703   0.902333   0.000335   0.000593  -0.000000   0.000465
    21  O   -0.000007   0.000335   8.184955   0.340518  -0.053404  -0.048744
    22  C   -0.000053   0.000593   0.340518   4.763055   0.372280   0.368957
    23  H   -0.000001  -0.000000  -0.053404   0.372280   0.798801  -0.088045
    24  H   -0.000004   0.000465  -0.048744   0.368957  -0.088045   0.855322
    25  C    0.000028   0.000421  -0.098970   0.275162  -0.031252  -0.079045
    26  O   -0.000655   0.011464  -0.025022  -0.095732   0.006424   0.009313
    27  H   -0.000028  -0.000041   0.007450  -0.014866   0.009977  -0.011259
    28  H    0.000003   0.000100   0.011343  -0.065946  -0.015678   0.019303
              25         26         27         28
     1  C   -0.002238  -0.000692  -0.000080  -0.000068
     2  H    0.000013   0.000104   0.000004  -0.000042
     3  H    0.000242  -0.000015   0.000002  -0.000020
     4  C    0.007795  -0.004570  -0.000038   0.003330
     5  H   -0.003787   0.004761   0.000410  -0.002632
     6  H   -0.000601  -0.000156   0.000000   0.000294
     7  O   -0.003320   0.000009   0.000002   0.000195
     8  O   -0.000603   0.000019  -0.000005   0.000100
     9  H   -0.000033  -0.000002   0.000001   0.000111
    10  Si  -0.045251   0.343643  -0.003697  -0.006786
    11  O   -0.003162  -0.019377   0.000431  -0.000408
    12  H    0.006128   0.000904  -0.000014  -0.000357
    13  O   -0.004233  -0.023245  -0.000379   0.000452
    14  O    0.000969  -0.046043  -0.000044  -0.000321
    15  C   -0.000467  -0.004701   0.000342  -0.000176
    16  H    0.000382   0.000217  -0.000030   0.000003
    17  H   -0.000078  -0.000264   0.000011  -0.000007
    18  C   -0.000471  -0.006965   0.000200  -0.000078
    19  H    0.000028  -0.000655  -0.000028   0.000003
    20  H    0.000421   0.011464  -0.000041   0.000100
    21  O   -0.098970  -0.025022   0.007450   0.011343
    22  C    0.275162  -0.095732  -0.014866  -0.065946
    23  H   -0.031252   0.006424   0.009977  -0.015678
    24  H   -0.079045   0.009313  -0.011259   0.019303
    25  C    4.805628   0.354937   0.341707   0.402731
    26  O    0.354937   8.041095  -0.049542  -0.056026
    27  H    0.341707  -0.049542   0.824623  -0.086298
    28  H    0.402731  -0.056026  -0.086298   0.786707
 Mulliken charges:
               1
     1  C    0.092410
     2  H    0.030479
     3  H    0.025711
     4  C    0.104539
     5  H    0.099226
     6  H    0.086672
     7  O   -0.498603
     8  O   -0.750370
     9  H    0.102800
    10  Si   0.764932
    11  O   -0.446715
    12  H    0.240015
    13  O   -0.631004
    14  O   -0.511220
    15  C    0.095951
    16  H   -0.027592
    17  H   -0.011531
    18  C    0.112938
    19  H   -0.024825
    20  H   -0.032831
    21  O   -0.518953
    22  C    0.089710
    23  H   -0.002522
    24  H   -0.018033
    25  C    0.077372
    26  O   -0.439882
    27  H   -0.018840
    28  H    0.010169
 Sum of Mulliken charges =  -2.00000
 Mulliken charges with hydrogens summed into heavy atoms:
               1
     1  C    0.148599
     4  C    0.290438
     7  O   -0.258588
     8  O   -0.647570
    10  Si   0.764932
    11  O   -0.446715
    13  O   -0.631004
    14  O   -0.511220
    15  C    0.056827
    18  C    0.055281
    21  O   -0.518953
    22  C    0.069155
    25  C    0.068701
    26  O   -0.439882
 APT charges:
               1
     1  C   -0.582136
     2  H    0.161184
     3  H    0.546563
     4  C   -0.280174
     5  H   -0.000410
     6  H    0.419404
     7  O   -0.143280
     8  O   -0.737202
     9  H    0.081027
    10  Si   0.303603
    11  O   -0.416368
    12  H   -0.050984
    13  O   -0.505387
    14  O   -0.415865
    15  C   -0.602321
    16  H    0.427579
    17  H    0.321797
    18  C   -0.576913
    19  H    0.460133
    20  H    0.259817
    21  O   -0.480288
    22  C   -0.575136
    23  H    0.346410
    24  H    0.309908
    25  C   -0.593557
    26  O   -0.373016
    27  H    0.452277
    28  H    0.243334
 Sum of APT charges =  -2.00000
 APT charges with hydrogens summed into heavy atoms:
               1
     1  C    0.125611
     4  C    0.138820
     7  O   -0.194264
     8  O   -0.656174
    10  Si   0.303603
    11  O   -0.416368
    13  O   -0.505387
    14  O   -0.415865
    15  C    0.147055
    18  C    0.143037
    21  O   -0.480288
    22  C    0.081183
    25  C    0.102053
    26  O   -0.373016
 Electronic spatial extent (au):  <R**2>=           3426.0845
 Charge=             -2.0000 electrons
 Dipole moment (field-independent basis, Debye):
    X=             -7.6182    Y=              3.3492    Z=              2.5882  Tot=              8.7151
 Quadrupole moment (field-independent basis, Debye-Ang):
   XX=           -173.5007   YY=           -108.9774   ZZ=           -120.3369
   XY=              5.5573   XZ=              7.8016   YZ=             -5.6662
 Traceless Quadrupole moment (field-independent basis, Debye-Ang):
   XX=            -39.2291   YY=             25.2943   ZZ=             13.9348
   XY=              5.5573   XZ=              7.8016   YZ=             -5.6662
 Octapole moment (field-independent basis, Debye-Ang**2):
  XXX=           -208.9951  YYY=             -2.9991  ZZZ=              2.8112  XYY=              8.0972
  XXY=             48.1199  XXZ=             63.7187  XZZ=            -24.5374  YZZ=             -0.7549
  YYZ=              6.8036  XYZ=            -12.5881
 Hexadecapole moment (field-independent basis, Debye-Ang**3):
 XXXX=          -4241.0067 YYYY=          -1086.6815 ZZZZ=           -711.5792 XXXY=            154.6044
 XXXZ=            310.9555 YYYX=             -1.5383 YYYZ=              4.6473 ZZZX=             20.7609
 ZZZY=              2.8408 XXYY=           -712.5851 XXZZ=           -821.3094 YYZZ=           -296.3453
 XXYZ=            -63.0492 YYXZ=             -2.8724 ZZXY=              4.5670
 N-N= 1.201448325815D+03 E-N=-4.926387227806D+03  KE= 1.049450178219D+03
  Exact polarizability:       0.000       0.000       0.000       0.000       0.000       0.000
 Approx polarizability:     166.133       4.270     140.412      -7.013      -0.254     129.442
   1 Symmetry operations used in ECPInt.
 ECPInt:  NShTT=   29161 NPrTT=   80163 LenC2=   26408 LenP2D=   54458.
 LDataN:  DoStor=T MaxTD1= 8 Len=  415
 Calling FoFJK, ICntrl=    100127 FMM=F ISym2X=0 I1Cent= 0 IOpClX= 0 NMat=1 NMatS=1 NMatT=0.
 -------------------------------------------------------------------
 Center     Atomic                   Forces (Hartrees/Bohr)
 Number     Number              X              Y              Z
 -------------------------------------------------------------------
      1        6          -0.000000190    0.000000334    0.000001447
      2        1          -0.000001144   -0.000000498    0.000001432
      3        1          -0.000000788   -0.000000148    0.000002234
      4        6           0.000000495    0.000000073    0.000002063
      5        1           0.000000598   -0.000000003    0.000001534
      6        1           0.000000876    0.000000376    0.000001000
      7        8          -0.000000742   -0.000000216    0.000001748
      8        8           0.000000654   -0.000000010    0.000002835
      9        1           0.000000679    0.000000453    0.000003175
     10       14           0.000000513   -0.000000795    0.000000352
     11        8          -0.000000784   -0.000000214   -0.000001277
     12        1          -0.000001170   -0.000000980    0.000000856
     13        8           0.000000190    0.000000483    0.000000017
     14        8           0.000000746    0.000000809   -0.000001420
     15        6          -0.000000987    0.000000641   -0.000002459
     16        1          -0.000000753   -0.000000483   -0.000002838
     17        1          -0.000000829   -0.000000650   -0.000002279
     18        6           0.000000528    0.000000388   -0.000002522
     19        1           0.000000478   -0.000000085   -0.000003228
     20        1           0.000000924   -0.000000083   -0.000002596
     21        8          -0.000001222   -0.000000177   -0.000000506
     22        6          -0.000000694   -0.000000661    0.000000566
     23        1          -0.000000294    0.000000069    0.000000994
     24        1          -0.000000720   -0.000000199   -0.000000411
     25        6           0.000000825    0.000001266   -0.000000532
     26        8           0.000001027   -0.000000123   -0.000000873
     27        1           0.000000842    0.000000148   -0.000000118
     28        1           0.000000940    0.000000286    0.000000802
 -------------------------------------------------------------------
 Cartesian Forces:  Max     0.000003228 RMS     0.000001158
 IRC-IRC-IRC-IRC-IRC-IRC-IRC-IRC-IRC-IRC-IRC-IRC-IRC-IRC-IRC-IRC-IRC-IRC
          ******** Start new reaction path calculation ********
 Supplied step size of   0.1000 bohr.
    Integration on MW PES will use step size of   0.2936 sqrt(amu)*bohr.
 Point Number:   0          Path Number:   1
 Calculating another point on the path.
 IRC-IRC-IRC-IRC-IRC-IRC-IRC-IRC-IRC-IRC-IRC-IRC-IRC-IRC-IRC-IRC-IRC-IRC
                          Input orientation:                          
 ---------------------------------------------------------------------
 Center     Atomic      Atomic             Coordinates (Angstroms)
 Number     Number       Type             X           Y           Z
 ---------------------------------------------------------------------
      1          6           0        2.748220   -0.965868    0.893956
      2          1           0        2.121531   -1.761032    1.312879
      3          1           0        3.798399   -1.260410    0.947868
      4          6           0        2.389857   -0.821166   -0.560056
      5          1           0        2.114878    0.136099   -0.956719
      6          1           0        2.340578   -1.686134   -1.189980
      7          8           0        2.605477    0.228286    1.630474
      8          8           0        4.218649   -0.538776   -1.263959
      9          1           0        4.456138    0.244601   -0.765813
     10         14           0       -0.762384   -0.167708   -0.126133
     11          8           0       -1.898352   -0.203259    1.200123
     12          1           0        1.702489    0.562024    1.431578
     13          8           0        0.461978   -1.176601   -0.265175
     14          8           0       -1.949262   -1.150353   -1.054465
     15          6           0       -3.045241   -0.943553    0.972351
     16          1           0       -3.915982   -0.471214    1.458782
     17          1           0       -2.947148   -1.963813    1.387033
     18          6           0       -3.214061   -1.026965   -0.547627
     19          1           0       -3.853771   -1.883156   -0.830070
     20          1           0       -3.725796   -0.107041   -0.904963
     21          8           0        0.162366    1.078712    0.886458
     22          6           0       -0.166417    2.367318    0.549526
     23          1           0        0.640462    3.074060    0.804929
     24          1           0       -1.083934    2.707117    1.072023
     25          6           0       -0.424160    2.341355   -0.958240
     26          8           0       -1.054697    1.140284   -1.237912
     27          1           0       -1.049895    3.190363   -1.280824
     28          1           0        0.538349    2.416165   -1.493817
 ---------------------------------------------------------------------
                    Distance matrix (angstroms):
                    1          2          3          4          5
     1  C    0.000000
     2  H    1.095683   0.000000
     3  H    1.092034   1.787664   0.000000
     4  C    1.504498   2.112637   2.109684   0.000000
     5  H    2.245094   2.958078   2.900333   1.072059   0.000000
     6  H    2.242263   2.513542   2.622381   1.071169   1.850915
     7  O    1.410262   2.071824   2.026138   2.438497   2.634910
     8  O    2.645972   3.540044   2.364223   1.979825   2.230629
     9  H    2.671526   3.714016   2.373686   2.334034   2.351535
    10  Si   3.741922   3.595331   4.811260   3.248372   3.010118
    11  O    4.718680   4.312636   5.799498   4.676406   4.568714
    12  H    1.927964   2.363530   2.819234   2.520376   2.460780
    13  O    2.571944   2.363457   3.551085   1.982425   2.221147
    14  O    5.088882   4.748537   6.087452   4.379584   4.264007
    15  C    5.794034   5.242114   6.851015   5.648321   5.613714
    16  H    6.706363   6.175474   7.771457   6.630368   6.524933
    17  H    5.803123   5.073275   6.796326   5.794861   5.960446
    18  C    6.134386   5.698147   7.173953   5.607709   5.469705
    19  H    6.884764   6.349124   7.880647   6.339056   6.302239
    20  H    6.773963   6.468828   7.834332   6.166859   5.845962
    21  O    3.296514   3.476248   4.323887   3.265525   2.845720
    22  C    4.441156   4.781285   5.388772   4.234635   3.528657
    23  H    4.557585   5.082291   5.364758   4.482895   3.729466
    24  H    5.311114   5.504304   6.292366   5.213414   4.578026
    25  C    4.942909   5.335551   5.868217   4.251915   3.363015
    26  O    4.841788   5.001259   5.838965   4.021408   3.336715
    27  H    6.035694   6.426627   6.948554   5.333269   4.410143
    28  H    4.692882   5.275698   5.486982   3.844516   2.823583
                    6          7          8          9         10
     6  H    0.000000
     7  O    3.419085   0.000000
     8  O    2.202057   3.401243   0.000000
     9  H    2.895385   3.027772   0.958244   0.000000
    10  Si   3.614659   3.819027   5.122795   5.273724   0.000000
    11  O    5.087242   4.544877   6.603179   6.666710   1.746609
    12  H    3.511971   0.983019   3.848213   3.537212   3.005757
    13  O    2.155000   3.187755   3.939159   4.268931   1.592564
    14  O    4.325292   5.463990   6.201697   6.561888   1.798908
    15  C    5.850995   5.808351   7.611112   7.791252   2.649535
    16  H    6.901921   6.561113   8.578468   8.692158   3.542492
    17  H    5.888815   5.974630   7.772203   8.020005   3.207625
    18  C    5.630376   6.339306   7.483090   7.777946   2.631863
    19  H    6.207923   7.227334   8.195096   8.578233   3.604853
    20  H    6.275003   6.828316   7.964263   8.190669   3.064648
    21  O    4.086633   2.691760   4.867648   4.675705   1.853123
    22  C    5.073596   3.664328   5.564433   5.253957   2.690362
    23  H    5.434105   3.555451   5.489654   5.003244   3.652932
    24  H    6.012037   4.479756   6.641537   6.335142   3.131068
    25  C    4.890618   4.510565   5.472138   5.315140   2.664994
    26  O    4.418011   4.738803   5.534266   5.603073   1.741362
    27  H    5.940015   5.532747   6.454790   6.265712   3.562669
    28  H    4.491014   4.338321   4.725370   4.538144   3.199823
                   11         12         13         14         15
    11  O    0.000000
    12  H    3.688535   0.000000
    13  O    2.943747   2.727757   0.000000
    14  O    2.445965   4.737925   2.537272   0.000000
    15  C    1.383933   5.001859   3.726441   2.313421   0.000000
    16  H    2.051715   5.712752   4.757744   3.262763   1.103590
    17  H    2.057780   5.291594   3.869319   2.760146   1.105673
    18  C    2.337566   5.533047   3.689910   1.368146   1.531598
    19  H    3.281372   6.478117   4.409537   2.052927   2.187532
    20  H    2.789300   5.947551   4.369295   2.065653   2.164998
    21  O    2.447119   1.713506   2.549993   3.632477   3.792845
    22  C    3.167134   2.744069   3.690254   4.257385   4.407751
    23  H    4.164441   2.798377   4.386923   5.292417   5.454690
    24  H    3.024892   3.534807   4.388759   4.488966   4.145365
    25  C    3.647853   3.660586   3.693453   3.811459   4.624702
    26  O    2.908758   3.881062   2.935043   2.465951   3.631790
    27  H    4.288548   4.673426   4.731562   4.438684   5.113459
    28  H    4.478416   3.653902   3.797811   4.370503   5.496527
                   16         17         18         19         20
    16  H    0.000000
    17  H    1.780909   0.000000
    18  C    2.197096   2.166065   0.000000
    19  H    2.690036   2.396668   1.105472   0.000000
    20  H    2.399184   3.050761   1.111675   1.782294   0.000000
    21  O    4.400312   4.379110   4.229744   5.277167   4.442185
    22  C    4.789910   5.214649   4.691805   5.793651   4.572436
    23  H    5.810135   6.212081   5.788364   6.888058   5.666334
    24  H    4.274560   5.038688   4.593917   5.688635   4.336749
    25  C    5.093659   5.513642   4.392918   5.442900   4.110752
    26  O    4.249239   4.484096   3.136290   4.140331   2.966723
    27  H    5.396947   6.105944   4.796566   5.814250   4.263167
    28  H    6.074197   6.295411   5.179865   6.181865   4.989615
                   21         22         23         24         25
    21  O    0.000000
    22  C    1.371906   0.000000
    23  H    2.053445   1.102619   0.000000
    24  H    2.058980   1.109190   1.783123   0.000000
    25  C    2.311102   1.529857   2.186102   2.165883   0.000000
    26  O    2.449078   2.342987   3.284243   2.791347   1.385051
    27  H    3.259717   2.192742   2.687229   2.402202   1.102914
    28  H    2.756058   2.162021   2.393217   3.049588   1.104021
                   26         27         28
    26  O    0.000000
    27  H    2.050534   0.000000
    28  H    2.056978   1.779681   0.000000
 Symmetry turned off by external request.
 Stoichiometry    C6H14O7Si(2-)
 Framework group  C1[X(C6H14O7Si)]
 Deg. of freedom    78
 Full point group                 C1      NOp   1
 Rotational constants (GHZ):           0.9654309           0.3998665           0.3691703
 Standard basis: def2TZVPP (5D, 7F)
   641 basis functions,   970 primitive gaussians,   726 cartesian basis functions
    61 alpha electrons       61 beta electrons
       nuclear repulsion energy      1201.2730290500 Hartrees.
 NAtoms=   28 NActive=   28 NUniq=   28 SFac= 1.00D+00 NAtFMM=   60 NAOKFM=F Big=F
 Integral buffers will be    131072 words long.
 Raffenetti 2 integral format.
 Two-electron integral symmetry is turned off.
 Nuclear repulsion after empirical dispersion term =     1201.2549124504 Hartrees.
 One-electron integrals computed using PRISM.
   1 Symmetry operations used in ECPInt.
 ECPInt:  NShTT=   29161 NPrTT=   80163 LenC2=   26411 LenP2D=   54449.
 LDataN:  DoStor=T MaxTD1= 6 Len=  172
 NBasis=   641 RedAO= T EigKep=  2.05D-04  NBF=   641
 NBsUse=   641 1.00D-06 EigRej= -1.00D+00 NBFU=   641
 Initial guess from the checkpoint file:  "IRC_PL2attDep_OHLG_reverse.chk"
 B after Tr=     0.008841    0.024925    0.007730
         Rot=    1.000000    0.000004    0.000010    0.000018 Ang=   0.00 deg.
 ExpMin= 7.01D-02 ExpMax= 4.48D+04 ExpMxC= 1.53D+03 IAcc=3 IRadAn=         5 AccDes= 0.00D+00
 Harris functional with IExCor= 4639 and IRadAn=       5 diagonalized for initial guess.
 HarFok:  IExCor= 4639 AccDes= 0.00D+00 IRadAn=         5 IDoV= 1 UseB2=F ITyADJ=14
 ICtDFT=  3500011 ScaDFX=  1.000000  1.000000  1.000000  1.000000
 FoFCou: FMM=F IPFlag=           0 FMFlag=      100000 FMFlg1=           0
         NFxFlg=           0 DoJE=T BraDBF=F KetDBF=T FulRan=T
         wScrn=  0.000000 ICntrl=       500 IOpCl=  0 I1Cent=   200000004 NGrid=           0
         NMat0=    1 NMatS0=      1 NMatT0=    0 NMatD0=    1 NMtDS0=    0 NMtDT0=    0
 Symmetry not used in FoFCou.
 Requested convergence on RMS density matrix=1.00D-08 within 128 cycles.
 Requested convergence on MAX density matrix=1.00D-06.
 Requested convergence on             energy=1.00D-06.
 No special actions if energy rises.
 Integral accuracy reduced to 1.0D-05 until final iterations.
 Initial convergence to 1.0D-05 achieved.  Increase integral accuracy.
 SCF Done:  E(RwB97XD) =  -1053.27438863     A.U. after   13 cycles
            NFock= 13  Conv=0.79D-08     -V/T= 2.0036
 DoSCS=F DFT=T ScalE2(SS,OS)=  1.000000  1.000000
 Range of M.O.s used for correlation:     1   641
 NBasis=   641 NAE=    61 NBE=    61 NFC=     0 NFV=     0
 NROrb=    641 NOA=    61 NOB=    61 NVA=   580 NVB=   580

 **** Warning!!: The largest alpha MO coefficient is  0.14584617D+02

 Symmetrizing basis deriv contribution to polar:
 IMax=3 JMax=2 DiffMx= 0.00D+00
   1 Symmetry operations used in ECPInt.
 ECPInt:  NShTT=   29161 NPrTT=   80163 LenC2=   26411 LenP2D=   54449.
 LDataN:  DoStor=T MaxTD1= 7 Len=  274
 Calling FoFJK, ICntrl=      2127 FMM=F ISym2X=0 I1Cent= 0 IOpClX= 0 NMat=1 NMatS=1 NMatT=0.
 -------------------------------------------------------------------
 Center     Atomic                   Forces (Hartrees/Bohr)
 Number     Number              X              Y              Z
 -------------------------------------------------------------------
      1        6           0.000912376   -0.000003691   -0.000198407
      2        1          -0.000191313    0.000142177   -0.000385378
      3        1          -0.000065864   -0.000140515    0.000480773
      4        6           0.011540768    0.001830567   -0.003714631
      5        1          -0.000098440   -0.000721284    0.000392257
      6        1          -0.000190870    0.000509239    0.000456738
      7        8          -0.000135299    0.000021908   -0.000436749
      8        8          -0.005526013   -0.000814305    0.002375276
      9        1          -0.000246917   -0.000037445    0.000064793
     10       14          -0.000483998   -0.001359007    0.000020244
     11        8          -0.000532760    0.000369335    0.000076750
     12        1          -0.000029089   -0.000050382   -0.000075534
     13        8          -0.003184277   -0.000886755    0.001018939
     14        8          -0.001213165    0.000200755   -0.000492067
     15        6          -0.000091387    0.000047741    0.000036894
     16        1          -0.000028953   -0.000028260    0.000010567
     17        1           0.000010536   -0.000006102   -0.000012645
     18        6          -0.000405677    0.000051431   -0.000023768
     19        1          -0.000062437    0.000003196    0.000023420
     20        1          -0.000074972    0.000008094    0.000024477
     21        8           0.000251832    0.000469098    0.000286297
     22        6           0.000026494    0.000088490    0.000057144
     23        1          -0.000012204    0.000043215   -0.000008587
     24        1          -0.000007759    0.000013604   -0.000005457
     25        6          -0.000066636   -0.000045442    0.000014017
     26        8          -0.000118073    0.000269737    0.000009247
     27        1           0.000013884    0.000019048    0.000000142
     28        1           0.000010217    0.000005557    0.000005246
 -------------------------------------------------------------------
 Cartesian Forces:  Max     0.011540768 RMS     0.001569345
 IRC-IRC-IRC-IRC-IRC-IRC-IRC-IRC-IRC-IRC-IRC-IRC-IRC-IRC-IRC-IRC-IRC-IRC
 Pt  1 Step number   1 out of a maximum of 100
 Modified Bulirsch-Stoer Extrapolation Cycles:
    EPS =    0.000010000000000
      PEZero:  N= 2 I= 1 D=  7.65D-04 Err=  1.91D-03
      PEZero:  N= 3 I= 2 D=  7.65D-04 Err=  1.27D-03
      PEZero:  N= 3 I= 1 D=  1.53D-03 Err=  9.65D-07
 Maximum DWI energy   std dev =  0.000002373 at pt    58
 Maximum DWI gradient std dev =  0.132876222 at pt     1
 CORRECTOR INTEGRATION CONVERGENCE:
   Recorrection delta-x convergence threshold:    0.010000
   Delta-x Convergence Met
 Point Number:   1          Path Number:   1
   CHANGE IN THE REACTION COORDINATE =    0.29354
   NET REACTION COORDINATE UP TO THIS POINT =    0.29354
  # OF POINTS ALONG THE PATH =   1
  # OF STEPS =   1

 Calculating another point on the path.
 IRC-IRC-IRC-IRC-IRC-IRC-IRC-IRC-IRC-IRC-IRC-IRC-IRC-IRC-IRC-IRC-IRC-IRC
                          Input orientation:                          
 ---------------------------------------------------------------------
 Center     Atomic      Atomic             Coordinates (Angstroms)
 Number     Number       Type             X           Y           Z
 ---------------------------------------------------------------------
      1          6           0        2.750922   -0.965716    0.893380
      2          1           0        2.113070   -1.757402    1.299830
      3          1           0        3.799293   -1.266699    0.966490
      4          6           0        2.427136   -0.815705   -0.569718
      5          1           0        2.104397    0.133567   -0.953179
      6          1           0        2.332270   -1.686857   -1.188006
      7          8           0        2.605212    0.228304    1.629383
      8          8           0        4.205396   -0.540714   -1.258279
      9          1           0        4.446708    0.243275   -0.763076
     10         14           0       -0.762883   -0.169651   -0.126136
     11          8           0       -1.899629   -0.202387    1.200294
     12          1           0        1.700926    0.560257    1.428630
     13          8           0        0.454226   -1.178503   -0.262777
     14          8           0       -1.952139   -1.149869   -1.055630
     15          6           0       -3.045546   -0.943409    0.972458
     16          1           0       -3.917109   -0.472269    1.459289
     17          1           0       -2.946739   -1.964067    1.386598
     18          6           0       -3.215366   -1.026795   -0.547703
     19          1           0       -3.856169   -1.883036   -0.829129
     20          1           0       -3.728646   -0.106733   -0.903979
     21          8           0        0.162948    1.079830    0.887140
     22          6           0       -0.166341    2.367591    0.549710
     23          1           0        0.639998    3.075706    0.804613
     24          1           0       -1.084236    2.707669    1.071817
     25          6           0       -0.424363    2.341196   -0.958191
     26          8           0       -1.054992    1.140921   -1.237881
     27          1           0       -1.049362    3.191090   -1.280850
     28          1           0        0.538706    2.416362   -1.493637
 ---------------------------------------------------------------------
                    Distance matrix (angstroms):
                    1          2          3          4          5
     1  C    0.000000
     2  H    1.094909   0.000000
     3  H    1.093168   1.787527   0.000000
     4  C    1.505987   2.116753   2.108589   0.000000
     5  H    2.244147   2.941409   2.918655   1.073462   0.000000
     6  H    2.242204   2.498470   2.640179   1.072467   1.849598
     7  O    1.410183   2.072158   2.024917   2.440842   2.632379
     8  O    2.631683   3.521659   2.375200   1.926641   2.227541
     9  H    2.661051   3.701913   2.385491   2.288557   2.352572
    10  Si   3.744324   3.581262   4.817759   3.284871   2.999539
    11  O    4.722764   4.304618   5.802167   4.714870   4.558786
    12  H    1.928103   2.357541   2.820370   2.532597   2.453134
    13  O    2.580075   2.351303   3.564877   2.029337   2.218388
    14  O    5.094246   4.737426   6.097671   4.418804   4.255959
    15  C    5.797051   5.232693   6.852472   5.687255   5.602666
    16  H    6.710171   6.167662   7.772827   6.669653   6.515027
    17  H    5.805455   5.064770   6.794980   5.833047   5.948831
    18  C    6.138164   5.686773   7.180235   5.646493   5.459920
    19  H    6.889279   6.338774   7.887345   6.378590   6.293681
    20  H    6.778876   6.458105   7.843089   6.205484   5.838197
    21  O    3.298774   3.467445   4.328452   3.292725   2.837501
    22  C    4.442912   4.772207   5.395185   4.255891   3.522184
    23  H    4.560370   5.076822   5.372507   4.497302   3.726993
    24  H    5.313571   5.496510   6.297266   5.238181   4.570994
    25  C    4.944332   5.323131   5.878824   4.271765   3.356825
    26  O    4.844086   4.987671   5.849783   4.049696   3.328296
    27  H    6.037257   6.414706   6.959301   5.352210   4.404771
    28  H    4.693634   5.263306   5.499872   3.855652   2.820396
                    6          7          8          9         10
     6  H    0.000000
     7  O    3.417604   0.000000
     8  O    2.197085   3.389774   0.000000
     9  H    2.894274   3.019137   0.958173   0.000000
    10  Si   3.606862   3.818937   5.109133   5.264602   0.000000
    11  O    5.081004   4.545680   6.590173   6.658035   1.747192
    12  H    3.506409   0.983986   3.834579   3.527517   3.003401
    13  O    2.154419   3.191569   3.933074   4.267512   1.586761
    14  O    4.319959   5.466087   6.190911   6.555279   1.799755
    15  C    5.843049   5.808230   7.597007   7.781656   2.648803
    16  H    6.894791   6.562044   8.565335   8.683568   3.543203
    17  H    5.879912   5.974077   7.757212   8.009776   3.205857
    18  C    5.623339   6.339883   7.470536   7.769610   2.631936
    19  H    6.201940   7.228519   8.183815   8.571075   3.605316
    20  H    6.269941   6.829929   7.953797   8.184055   3.066716
    21  O    4.082493   2.690850   4.854933   4.666223   1.856097
    22  C    5.069641   3.663843   5.553300   5.245602   2.692624
    23  H    5.432892   3.556685   5.481431   4.997134   3.656051
    24  H    6.007593   4.479974   6.630351   6.327038   3.133262
    25  C    4.886415   4.509787   5.461697   5.307228   2.666695
    26  O    4.412749   4.738266   5.522680   5.594632   1.743245
    27  H    5.936196   5.532040   6.445103   6.258153   3.565111
    28  H    4.488506   4.337200   4.716388   4.530839   3.201821
                   11         12         13         14         15
    11  O    0.000000
    12  H    3.687514   0.000000
    13  O    2.938369   2.727344   0.000000
    14  O    2.447380   4.737190   2.533778   0.000000
    15  C    1.383528   4.999810   3.718801   2.313288   0.000000
    16  H    2.051863   5.712212   4.751090   3.262677   1.103902
    17  H    2.057830   5.289118   3.860584   2.759822   1.105901
    18  C    2.338013   5.531235   3.683763   1.367070   1.531888
    19  H    3.281949   6.476763   4.404160   2.052843   2.187630
    20  H    2.789698   5.946948   4.365347   2.065698   2.165102
    21  O    2.448749   1.711299   2.550925   3.635864   3.794102
    22  C    3.167386   2.743290   3.690531   4.258957   4.408090
    23  H    4.165593   2.800437   4.390003   5.294825   5.455703
    24  H    3.024863   3.534943   4.387521   4.489976   4.145719
    25  C    3.647640   3.658621   3.693751   3.811972   4.624568
    26  O    2.909052   3.878470   2.933990   2.466943   3.632126
    27  H    4.288906   4.671900   4.731870   4.439556   5.114317
    28  H    4.478904   3.651784   3.800685   4.371975   5.496958
                   16         17         18         19         20
    16  H    0.000000
    17  H    1.781113   0.000000
    18  C    2.197261   2.166139   0.000000
    19  H    2.689021   2.396471   1.105883   0.000000
    20  H    2.398785   3.050870   1.112162   1.782448   0.000000
    21  O    4.402639   4.380059   4.231980   5.279911   4.445283
    22  C    4.791701   5.214811   4.692838   5.795158   4.574440
    23  H    5.812397   6.213107   5.789915   6.890120   5.668532
    24  H    4.276367   5.039159   4.594647   5.689621   4.337917
    25  C    5.095004   5.513229   4.393354   5.444087   4.112612
    26  O    4.250744   4.484144   3.137285   4.142220   2.969269
    27  H    5.399309   6.106633   4.797878   5.816268   4.265704
    28  H    6.076039   6.295414   5.181040   6.183956   4.992393
                   21         22         23         24         25
    21  O    0.000000
    22  C    1.371356   0.000000
    23  H    2.053755   1.102989   0.000000
    24  H    2.058989   1.109406   1.783209   0.000000
    25  C    2.311109   1.530045   2.186286   2.165794   0.000000
    26  O    2.450066   2.343054   3.284534   2.791103   1.384405
    27  H    3.259954   2.192904   2.686337   2.402073   1.103201
    28  H    2.756014   2.162114   2.393105   3.049648   1.104470
                   26         27         28
    26  O    0.000000
    27  H    2.050627   0.000000
    28  H    2.057190   1.779730   0.000000
 Symmetry turned off by external request.
 Stoichiometry    C6H14O7Si(2-)
 Framework group  C1[X(C6H14O7Si)]
 Deg. of freedom    78
 Full point group                 C1      NOp   1
 Rotational constants (GHZ):           0.9655704           0.3997024           0.3689675
 Standard basis: def2TZVPP (5D, 7F)
   641 basis functions,   970 primitive gaussians,   726 cartesian basis functions
    61 alpha electrons       61 beta electrons
       nuclear repulsion energy      1201.1168233346 Hartrees.
 NAtoms=   28 NActive=   28 NUniq=   28 SFac= 1.00D+00 NAtFMM=   60 NAOKFM=F Big=F
 Integral buffers will be    131072 words long.
 Raffenetti 2 integral format.
 Two-electron integral symmetry is turned off.
 Nuclear repulsion after empirical dispersion term =     1201.0987111975 Hartrees.
 One-electron integrals computed using PRISM.
   1 Symmetry operations used in ECPInt.
 ECPInt:  NShTT=   29161 NPrTT=   80163 LenC2=   26412 LenP2D=   54447.
 LDataN:  DoStor=T MaxTD1= 6 Len=  172
 NBasis=   641 RedAO= T EigKep=  2.04D-04  NBF=   641
 NBsUse=   641 1.00D-06 EigRej= -1.00D+00 NBFU=   641
 Initial guess from the checkpoint file:  "IRC_PL2attDep_OHLG_reverse.chk"
 B after Tr=    -0.000344   -0.000053    0.000099
         Rot=    1.000000    0.000003    0.000017    0.000019 Ang=   0.00 deg.
 ExpMin= 7.01D-02 ExpMax= 4.48D+04 ExpMxC= 1.53D+03 IAcc=3 IRadAn=         5 AccDes= 0.00D+00
 Harris functional with IExCor= 4639 and IRadAn=       5 diagonalized for initial guess.
 HarFok:  IExCor= 4639 AccDes= 0.00D+00 IRadAn=         5 IDoV= 1 UseB2=F ITyADJ=14
 ICtDFT=  3500011 ScaDFX=  1.000000  1.000000  1.000000  1.000000
 FoFCou: FMM=F IPFlag=           0 FMFlag=      100000 FMFlg1=           0
         NFxFlg=           0 DoJE=T BraDBF=F KetDBF=T FulRan=T
         wScrn=  0.000000 ICntrl=       500 IOpCl=  0 I1Cent=   200000004 NGrid=           0
         NMat0=    1 NMatS0=      1 NMatT0=    0 NMatD0=    1 NMtDS0=    0 NMtDT0=    0
 Symmetry not used in FoFCou.
 Requested convergence on RMS density matrix=1.00D-08 within 128 cycles.
 Requested convergence on MAX density matrix=1.00D-06.
 Requested convergence on             energy=1.00D-06.
 No special actions if energy rises.
 Integral accuracy reduced to 1.0D-05 until final iterations.
 Initial convergence to 1.0D-05 achieved.  Increase integral accuracy.
 SCF Done:  E(RwB97XD) =  -1053.27615693     A.U. after   13 cycles
            NFock= 13  Conv=0.68D-08     -V/T= 2.0036
 DoSCS=F DFT=T ScalE2(SS,OS)=  1.000000  1.000000
 Range of M.O.s used for correlation:     1   641
 NBasis=   641 NAE=    61 NBE=    61 NFC=     0 NFV=     0
 NROrb=    641 NOA=    61 NOB=    61 NVA=   580 NVB=   580

 **** Warning!!: The largest alpha MO coefficient is  0.13812293D+02

 Symmetrizing basis deriv contribution to polar:
 IMax=3 JMax=2 DiffMx= 0.00D+00
   1 Symmetry operations used in ECPInt.
 ECPInt:  NShTT=   29161 NPrTT=   80163 LenC2=   26412 LenP2D=   54447.
 LDataN:  DoStor=T MaxTD1= 7 Len=  274
 Calling FoFJK, ICntrl=      2127 FMM=F ISym2X=0 I1Cent= 0 IOpClX= 0 NMat=1 NMatS=1 NMatT=0.
 -------------------------------------------------------------------
 Center     Atomic                   Forces (Hartrees/Bohr)
 Number     Number              X              Y              Z
 -------------------------------------------------------------------
      1        6           0.001767935   -0.000036111   -0.000453805
      2        1          -0.000342994    0.000291960   -0.000744982
      3        1          -0.000147216   -0.000262237    0.000875214
      4        6           0.022589323    0.003578440   -0.007248607
      5        1          -0.000090780   -0.001449132    0.000765402
      6        1          -0.000331516    0.001012928    0.000918278
      7        8          -0.000242414    0.000054806   -0.000857984
      8        8          -0.011117552   -0.001589821    0.004788569
      9        1          -0.000444702   -0.000080914    0.000113922
     10       14          -0.000942431   -0.002539198    0.000031710
     11        8          -0.001019994    0.000707398    0.000131785
     12        1          -0.000037336   -0.000087525   -0.000143921
     13        8          -0.006217379   -0.001734384    0.001940199
     14        8          -0.002304622    0.000390666   -0.000954456
     15        6          -0.000191661    0.000082500    0.000069517
     16        1          -0.000050838   -0.000053209    0.000026257
     17        1           0.000021867   -0.000008950   -0.000019390
     18        6          -0.000806742    0.000106054   -0.000036268
     19        1          -0.000117142    0.000007629    0.000051368
     20        1          -0.000140293    0.000013238    0.000052630
     21        8           0.000463071    0.000874977    0.000549305
     22        6           0.000047420    0.000173632    0.000106549
     23        1          -0.000023065    0.000078521   -0.000018673
     24        1          -0.000012575    0.000025168   -0.000009356
     25        6          -0.000115475   -0.000084749    0.000029053
     26        8          -0.000232490    0.000489151    0.000027182
     27        1           0.000024618    0.000032744    0.000000584
     28        1           0.000014984    0.000006421    0.000009918
 -------------------------------------------------------------------
 Cartesian Forces:  Max     0.022589323 RMS     0.003083086
 IRC-IRC-IRC-IRC-IRC-IRC-IRC-IRC-IRC-IRC-IRC-IRC-IRC-IRC-IRC-IRC-IRC-IRC
 Pt  2 Step number   1 out of a maximum of 100
 Modified Bulirsch-Stoer Extrapolation Cycles:
    EPS =    0.000010000000000
      PEZero:  N= 2 I= 1 D=  1.53D-03 Err=  1.82D-05
      PEZero:  N= 3 I= 2 D=  1.53D-03 Err=  1.21D-05
      PEZero:  N= 3 I= 1 D=  3.06D-03 Err=  4.05D-08
 Maximum DWI energy   std dev =  0.000002071 at pt    43
 Maximum DWI gradient std dev =  0.091904733 at pt    27
 CORRECTOR INTEGRATION CONVERGENCE:
   Recorrection delta-x convergence threshold:    0.010000
   Delta-x Convergence Met
 Point Number:   2          Path Number:   1
   CHANGE IN THE REACTION COORDINATE =    0.29346
   NET REACTION COORDINATE UP TO THIS POINT =    0.58701
  # OF POINTS ALONG THE PATH =   2
  # OF STEPS =   1

 Calculating another point on the path.
 IRC-IRC-IRC-IRC-IRC-IRC-IRC-IRC-IRC-IRC-IRC-IRC-IRC-IRC-IRC-IRC-IRC-IRC
                          Input orientation:                          
 ---------------------------------------------------------------------
 Center     Atomic      Atomic             Coordinates (Angstroms)
 Number     Number       Type             X           Y           Z
 ---------------------------------------------------------------------
      1          6           0        2.753626   -0.965551    0.892520
      2          1           0        2.104676   -1.753474    1.286158
      3          1           0        3.799752   -1.272908    0.984574
      4          6           0        2.464320   -0.810302   -0.579386
      5          1           0        2.095945    0.128717   -0.948497
      6          1           0        2.324985   -1.685861   -1.184159
      7          8           0        2.604991    0.228341    1.628323
      8          8           0        4.191724   -0.542665   -1.252414
      9          1           0        4.437811    0.241826   -0.760483
     10         14           0       -0.763476   -0.171434   -0.126125
     11          8           0       -1.900876   -0.201530    1.200454
     12          1           0        1.699580    0.558636    1.425614
     13          8           0        0.446685   -1.180520   -0.260478
     14          8           0       -1.954944   -1.149387   -1.056783
[...]
 ICtDFT=  3500011 ScaDFX=  1.000000  1.000000  1.000000  1.000000
 FoFCou: FMM=F IPFlag=           0 FMFlag=      100000 FMFlg1=           0
         NFxFlg=           0 DoJE=T BraDBF=F KetDBF=T FulRan=T
         wScrn=  0.000000 ICntrl=       500 IOpCl=  0 I1Cent=   200000004 NGrid=           0
         NMat0=    1 NMatS0=      1 NMatT0=    0 NMatD0=    1 NMtDS0=    0 NMtDT0=    0
 Symmetry not used in FoFCou.
 Requested convergence on RMS density matrix=1.00D-08 within 128 cycles.
 Requested convergence on MAX density matrix=1.00D-06.
 Requested convergence on             energy=1.00D-06.
 No special actions if energy rises.
 Integral accuracy reduced to 1.0D-05 until final iterations.
 Initial convergence to 1.0D-05 achieved.  Increase integral accuracy.
 SCF Done:  E(RwB97XD) =  -1053.31252217     A.U. after   10 cycles
            NFock= 10  Conv=0.74D-08     -V/T= 2.0035
 DoSCS=F DFT=T ScalE2(SS,OS)=  1.000000  1.000000
 Range of M.O.s used for correlation:     1   641
 NBasis=   641 NAE=    61 NBE=    61 NFC=     0 NFV=     0
 NROrb=    641 NOA=    61 NOB=    61 NVA=   580 NVB=   580

 **** Warning!!: The largest alpha MO coefficient is  0.12543402D+02

 Symmetrizing basis deriv contribution to polar:
 IMax=3 JMax=2 DiffMx= 0.00D+00
   1 Symmetry operations used in ECPInt.
 ECPInt:  NShTT=   29161 NPrTT=   80163 LenC2=   26392 LenP2D=   54404.
 LDataN:  DoStor=T MaxTD1= 7 Len=  274
 Calling FoFJK, ICntrl=      2127 FMM=F ISym2X=0 I1Cent= 0 IOpClX= 0 NMat=1 NMatS=1 NMatT=0.
 -------------------------------------------------------------------
 Center     Atomic                   Forces (Hartrees/Bohr)
 Number     Number              X              Y              Z
 -------------------------------------------------------------------
      1        6           0.005243975   -0.001713006    0.000217727
      2        1           0.000775343    0.001100852   -0.000538107
      3        1          -0.001894132    0.000285014   -0.000605639
      4        6           0.018508089    0.000216592    0.001560281
      5        1          -0.002296118    0.002361808   -0.000608029
      6        1          -0.000882267   -0.002754849   -0.001270235
      7        8           0.001836485    0.000403307   -0.003602231
      8        8           0.002111870    0.001836964    0.002228105
      9        1           0.001221266    0.001147641    0.000444139
     10       14          -0.004489958   -0.002843819   -0.000141525
     11        8          -0.002921365    0.001937164   -0.000513666
     12        1           0.000095982    0.000053046   -0.000124371
     13        8          -0.005859053   -0.005084430    0.002671325
     14        8          -0.006061585    0.001938677   -0.002343917
     15        6          -0.001296488   -0.000146670    0.000334528
     16        1          -0.000008662   -0.000108856    0.000084630
     17        1           0.000059152   -0.000020383   -0.000047424
     18        6          -0.003626321    0.000603466    0.000571744
     19        1          -0.000091557    0.000049204    0.000076896
     20        1          -0.000136278   -0.000033330    0.000100476
     21        8           0.000257444    0.000667147    0.000808634
     22        6           0.000075290    0.000339753    0.000095417
     23        1          -0.000005769   -0.000018507   -0.000015029
     24        1           0.000016749   -0.000003078   -0.000003918
     25        6           0.000009507   -0.000234062    0.000178239
     26        8          -0.000682597    0.000088479    0.000462269
     27        1           0.000021174   -0.000020678   -0.000020406
     28        1           0.000019822   -0.000047447    0.000000089
 -------------------------------------------------------------------
 Cartesian Forces:  Max     0.018508089 RMS     0.002688436
 IRC-IRC-IRC-IRC-IRC-IRC-IRC-IRC-IRC-IRC-IRC-IRC-IRC-IRC-IRC-IRC-IRC-IRC
 Error in corrector energy =          -0.0002259108
 Magnitude of corrector gradient =     0.0213294919
 Magnitude of analytic gradient =      0.0246399187
 Magnitude of difference =             0.0107107882
 Angle between gradients (degrees)=   25.6727
 Pt 11 Step number  99 out of a maximum of 100
 Modified Bulirsch-Stoer Extrapolation Cycles:
    EPS =    0.000010000000000
      PEZero:  N= 2 I= 1 D=  1.52D-03 Err=  5.27D-04
      PEZero:  N= 3 I= 2 D=  1.52D-03 Err=  3.51D-04
      PEZero:  N= 3 I= 1 D=  3.04D-03 Err=  8.69D-07
 Maximum DWI energy   std dev =  0.000008802 at pt    29
 Maximum DWI gradient std dev =  0.184869369 at pt    30
 CORRECTOR INTEGRATION CONVERGENCE:
   Recorrection delta-x convergence threshold:    0.010000
   Delta-x Convergence NOT Met
 IRC-IRC-IRC-IRC-IRC-IRC-IRC-IRC-IRC-IRC-IRC-IRC-IRC-IRC-IRC-IRC-IRC-IRC
                          Input orientation:                          
 ---------------------------------------------------------------------
 Center     Atomic      Atomic             Coordinates (Angstroms)
 Number     Number       Type             X           Y           Z
 ---------------------------------------------------------------------
      1          6           0        2.795093   -0.963091    0.875206
      2          1           0        2.048963   -1.706452    1.147665
      3          1           0        3.801935   -1.328663    1.124121
      4          6           0        2.754061   -0.773495   -0.643626
      5          1           0        2.102793    0.061227   -0.899598
      6          1           0        2.357385   -1.656428   -1.135857
      7          8           0        2.608241    0.229579    1.612519
      8          8           0        4.087816   -0.551721   -1.199084
      9          1           0        4.416077    0.229068   -0.751832
     10         14           0       -0.775140   -0.185282   -0.126132
     11          8           0       -1.915873   -0.191078    1.200216
     12          1           0        1.698070    0.544858    1.390620
     13          8           0        0.393269   -1.208130   -0.241012
     14          8           0       -1.987139   -1.141649   -1.070632
     15          6           0       -3.052386   -0.942790    0.974264
     16          1           0       -3.928909   -0.485145    1.468598
     17          1           0       -2.941096   -1.966077    1.381806
     18          6           0       -3.236907   -1.023698   -0.546220
     19          1           0       -3.884802   -1.881081   -0.817433
     20          1           0       -3.763495   -0.103299   -0.890884
     21          8           0        0.167193    1.089282    0.894350
     22          6           0       -0.165493    2.370838    0.551257
     23          1           0        0.636739    3.089294    0.800711
     24          1           0       -1.085964    2.713555    1.070378
     25          6           0       -0.425563    2.339835   -0.957256
     26          8           0       -1.059097    1.145290   -1.236452
     27          1           0       -1.044916    3.195646   -1.281310
     28          1           0        0.541083    2.414155   -1.491530
 ---------------------------------------------------------------------
                    Distance matrix (angstroms):
                    1          2          3          4          5
     1  C    0.000000
     2  H    1.087901   0.000000
     3  H    1.099696   1.793373   0.000000
     4  C    1.531170   2.139228   2.128657   0.000000
     5  H    2.162969   2.705342   2.985685   1.089235   0.000000
     6  H    2.171791   2.304799   2.702157   1.085916   1.752420
     7  O    1.414569   2.068115   2.022759   2.473381   2.567986
     8  O    2.478515   3.316256   2.466302   1.461718   2.098979
     9  H    2.587679   3.599660   2.514537   1.944001   2.324066
    10  Si   3.788698   3.451388   4.880581   3.615115   2.990237
    11  O    4.784855   4.244884   5.830370   5.054428   4.541206
    12  H    1.934689   2.291408   2.829726   2.644112   2.375457
    13  O    2.659839   2.217673   3.673842   2.433997   2.228784
    14  O    5.166034   4.640039   6.193972   4.774605   4.266581
    15  C    5.848354   5.161106   6.866809   6.030013   5.576315
    16  H    6.767034   6.109791   7.784351   7.014750   6.502946
    17  H    5.845210   5.002291   6.777990   6.161123   5.895386
    18  C    6.197512   5.592479   7.240741   5.996982   5.460251
    19  H    6.951887   6.253133   7.947372   6.732864   6.295285
    20  H    6.846415   6.364782   7.924487   6.556587   5.868602
    21  O    3.334436   3.379550   4.371567   3.539378   2.832260
    22  C    4.470470   4.678014   5.454811   4.454029   3.547451
    23  H    4.591935   5.011381   5.444392   4.635764   3.769557
    24  H    5.349619   5.419429   6.343025   5.462886   4.591713
    25  C    4.963856   5.189067   5.971745   4.461076   3.404110
    26  O    4.874336   4.845254   5.943263   4.309681   3.359496
    27  H    6.057337   6.285108   7.053186   5.531090   4.458516
    28  H    4.699765   5.120396   5.611013   3.972068   2.885410
                    6          7          8          9         10
     6  H    0.000000
     7  O    3.342682   0.000000
     8  O    2.053964   3.271801   0.000000
     9  H    2.817939   2.976310   0.957821   0.000000
    10  Si   3.605070   3.826524   4.993380   5.245180   0.000000
    11  O    5.085786   4.562297   6.475413   6.639322   1.749430
    12  H    3.415178   0.988460   3.690520   3.475253   2.991723
    13  O    2.204421   3.226249   3.872783   4.302262   1.557111
    14  O    4.375402   5.495187   6.104883   6.556041   1.809878
    15  C    5.850429   5.815885   7.473879   7.754392   2.640178
    16  H    6.904534   6.577680   8.449192   8.664825   3.546737
    17  H    5.874386   5.972376   7.620170   7.968629   3.183783
    18  C    5.660753   6.355833   7.368892   7.757568   2.634333
    19  H    6.254340   7.247011   8.091693   8.565140   3.608827
    20  H    6.319604   6.853967   7.870143   8.187503   3.085747
    21  O    4.056798   2.685810   4.737789   4.637121   1.885176
    22  C    5.042831   3.661267   5.449375   5.222643   2.713720
    23  H    5.406737   3.567047   5.400565   4.987452   3.684466
    24  H    5.985055   4.484552   6.525373   6.305995   3.151429
    25  C    4.873071   4.501210   5.365647   5.285737   2.681265
    26  O    4.419513   4.733343   5.419590   5.572418   1.756093
    27  H    5.927853   5.524252   6.355664   6.237257   3.583000
    28  H    4.471588   4.322110   4.632630   4.509693   3.217736
                   11         12         13         14         15
    11  O    0.000000
    12  H    3.693025   0.000000
    13  O    2.905799   2.727213   0.000000
    14  O    2.462806   4.741606   2.521712   0.000000
    15  C    1.381227   4.995326   3.663310   2.314281   0.000000
    16  H    2.052028   5.721003   4.703902   3.263305   1.105485
    17  H    2.057833   5.275105   3.784971   2.757565   1.107065
    18  C    2.342738   5.528627   3.647650   1.360456   1.533775
    19  H    3.286898   6.475271   4.368869   2.052314   2.187118
    20  H    2.791794   5.954331   4.349905   2.065410   2.165456
    21  O    2.464151   1.698901   2.572598   3.671424   3.808070
    22  C    3.169920   2.740730   3.707953   4.276270   4.415113
    23  H    4.175677   2.819321   4.428580   5.318604   5.467858
    24  H    3.023657   3.543536   4.391752   4.500960   4.152700
    25  C    3.644342   3.639269   3.711003   3.817343   4.626726
    26  O    2.908143   3.855385   2.939193   2.473631   3.636007
    27  H    4.287941   4.657237   4.748035   4.443456   5.122910
    28  H    4.479885   3.624869   3.834917   4.383241   5.501113
                   16         17         18         19         20
    16  H    0.000000
    17  H    1.782265   0.000000
    18  C    2.197361   2.166302   0.000000
    19  H    2.678903   2.394672   1.108346   0.000000
    20  H    2.395898   3.051459   1.114999   1.783429   0.000000
    21  O    4.425679   4.385692   4.257678   5.307723   4.478797
    22  C    4.812635   5.215613   4.707538   5.812520   4.598559
    23  H    5.836765   6.220559   5.808275   6.911393   5.693524
    24  H    4.297976   5.043556   4.605106   5.701579   4.353205
    25  C    5.112603   5.508175   4.402949   5.459122   4.137040
    26  O    4.267486   4.480826   3.150204   4.161623   2.998693
    27  H    5.424724   6.109916   4.811242   5.835520   4.292568
    28  H    6.095009   6.290315   5.194772   6.204186   5.022723
                   21         22         23         24         25
    21  O    0.000000
    22  C    1.367765   0.000000
    23  H    2.056524   1.105434   0.000000
    24  H    2.059042   1.110949   1.783706   0.000000
    25  C    2.311641   1.531080   2.186463   2.164970   0.000000
    26  O    2.459114   2.344440   3.287103   2.789560   1.380671
    27  H    3.261821   2.193626   2.678449   2.400944   1.104999
    28  H    2.754543   2.161968   2.391513   3.049639   1.106968
                   26         27         28
    26  O    0.000000
    27  H    2.050896   0.000000
    28  H    2.058072   1.780538   0.000000
 Symmetry turned off by external request.
 Stoichiometry    C6H14O7Si(2-)
 Framework group  C1[X(C6H14O7Si)]
 Deg. of freedom    78
 Full point group                 C1      NOp   1
 Rotational constants (GHZ):           0.9687610           0.3963228           0.3652072
 Standard basis: def2TZVPP (5D, 7F)
   641 basis functions,   970 primitive gaussians,   726 cartesian basis functions
    61 alpha electrons       61 beta electrons
       nuclear repulsion energy      1200.1375524570 Hartrees.
 NAtoms=   28 NActive=   28 NUniq=   28 SFac= 1.00D+00 NAtFMM=   60 NAOKFM=F Big=F
 Integral buffers will be    131072 words long.
 Raffenetti 2 integral format.
 Two-electron integral symmetry is turned off.
 Nuclear repulsion after empirical dispersion term =     1200.1195507815 Hartrees.
 One-electron integrals computed using PRISM.
   1 Symmetry operations used in ECPInt.
 ECPInt:  NShTT=   29161 NPrTT=   80163 LenC2=   26390 LenP2D=   54397.
 LDataN:  DoStor=T MaxTD1= 6 Len=  172
 NBasis=   641 RedAO= T EigKep=  1.91D-04  NBF=   641
 NBsUse=   641 1.00D-06 EigRej= -1.00D+00 NBFU=   641
 Initial guess from the checkpoint file:  "IRC_PL2attDep_OHLG_reverse.chk"
 B after Tr=     0.000057    0.000098   -0.000153
         Rot=    1.000000   -0.000004   -0.000052   -0.000025 Ang=  -0.01 deg.
 ExpMin= 7.01D-02 ExpMax= 4.48D+04 ExpMxC= 1.53D+03 IAcc=3 IRadAn=         5 AccDes= 0.00D+00
 Harris functional with IExCor= 4639 and IRadAn=       5 diagonalized for initial guess.
 HarFok:  IExCor= 4639 AccDes= 0.00D+00 IRadAn=         5 IDoV= 1 UseB2=F ITyADJ=14
 ICtDFT=  3500011 ScaDFX=  1.000000  1.000000  1.000000  1.000000
 FoFCou: FMM=F IPFlag=           0 FMFlag=      100000 FMFlg1=           0
         NFxFlg=           0 DoJE=T BraDBF=F KetDBF=T FulRan=T
         wScrn=  0.000000 ICntrl=       500 IOpCl=  0 I1Cent=   200000004 NGrid=           0
         NMat0=    1 NMatS0=      1 NMatT0=    0 NMatD0=    1 NMtDS0=    0 NMtDT0=    0
 Symmetry not used in FoFCou.
 Requested convergence on RMS density matrix=1.00D-08 within 128 cycles.
 Requested convergence on MAX density matrix=1.00D-06.
 Requested convergence on             energy=1.00D-06.
 No special actions if energy rises.
 Integral accuracy reduced to 1.0D-05 until final iterations.
 Initial convergence to 1.0D-05 achieved.  Increase integral accuracy.
 SCF Done:  E(RwB97XD) =  -1053.31255989     A.U. after   10 cycles
            NFock= 10  Conv=0.78D-08     -V/T= 2.0035
 DoSCS=F DFT=T ScalE2(SS,OS)=  1.000000  1.000000
 Range of M.O.s used for correlation:     1   641
 NBasis=   641 NAE=    61 NBE=    61 NFC=     0 NFV=     0
 NROrb=    641 NOA=    61 NOB=    61 NVA=   580 NVB=   580

 **** Warning!!: The largest alpha MO coefficient is  0.12522296D+02

 Symmetrizing basis deriv contribution to polar:
 IMax=3 JMax=2 DiffMx= 0.00D+00
   1 Symmetry operations used in ECPInt.
 ECPInt:  NShTT=   29161 NPrTT=   80163 LenC2=   26390 LenP2D=   54397.
 LDataN:  DoStor=T MaxTD1= 7 Len=  274
 Calling FoFJK, ICntrl=      2127 FMM=F ISym2X=0 I1Cent= 0 IOpClX= 0 NMat=1 NMatS=1 NMatT=0.
 -------------------------------------------------------------------
 Center     Atomic                   Forces (Hartrees/Bohr)
 Number     Number              X              Y              Z
 -------------------------------------------------------------------
      1        6           0.005525240    0.001159779   -0.002223213
      2        1          -0.000975644   -0.000236469   -0.001035428
      3        1           0.001206673   -0.000849493    0.001719885
      4        6           0.008785446    0.001055596   -0.000701242
      5        1           0.002529100   -0.002212460    0.000634003
      6        1           0.002275190    0.001524904    0.000853877
      7        8           0.002055374    0.000425188   -0.003260435
      8        8           0.003802366    0.003113234    0.002233868
      9        1          -0.000414162   -0.000796458   -0.000269939
     10       14          -0.004952260   -0.002463214   -0.000099090
     11        8          -0.002843679    0.001911324   -0.000533779
     12        1           0.000109451   -0.000180970   -0.000443382
     13        8          -0.005404175   -0.005564684    0.002754506
     14        8          -0.005699301    0.001891249   -0.002366529
     15        6          -0.001359229   -0.000028159    0.000285101
     16        1          -0.000146348   -0.000163378    0.000150943
     17        1           0.000060084   -0.000011417   -0.000060796
     18        6          -0.003387507    0.000563318    0.000462063
     19        1          -0.000380547    0.000034390    0.000140257
     20        1          -0.000473488    0.000048529    0.000182548
     21        8           0.000225901    0.000556932    0.000841511
     22        6           0.000114128    0.000273218    0.000120606
     23        1          -0.000017193    0.000105994   -0.000042960
     24        1          -0.000002223    0.000060521   -0.000004761
     25        6           0.000006137   -0.000171173    0.000157935
     26        8          -0.000675409    0.000001373    0.000478707
     27        1           0.000037846    0.000014156   -0.000005700
     28        1          -0.000001770   -0.000061831    0.000031444
 -------------------------------------------------------------------
 Cartesian Forces:  Max     0.008785446 RMS     0.002059995
 IRC-IRC-IRC-IRC-IRC-IRC-IRC-IRC-IRC-IRC-IRC-IRC-IRC-IRC-IRC-IRC-IRC-IRC
 Error in corrector energy =          -0.0001458444
 Magnitude of corrector gradient =     0.0216993730
 Magnitude of analytic gradient =      0.0188801623
 Magnitude of difference =             0.0087963028
 Angle between gradients (degrees)=   23.7561
 Pt 11 Step number 100 out of a maximum of 100
 Modified Bulirsch-Stoer Extrapolation Cycles:
    EPS =    0.000010000000000
      PEZero:  N= 2 I= 1 D=  1.52D-03 Err=  7.72D-04
      PEZero:  N= 3 I= 2 D=  1.52D-03 Err=  5.13D-04
      PEZero:  N= 3 I= 1 D=  3.04D-03 Err=  2.34D-06
 Maximum DWI energy   std dev =  0.000014499 at pt    31
 Maximum DWI gradient std dev =  0.131530281 at pt    62
 CORRECTOR INTEGRATION CONVERGENCE:
   Recorrection delta-x convergence threshold:    0.010000
   Delta-x Convergence NOT Met
 Maximum number of corrector steps exceded.
 Error termination via Lnk1e in /opt/software/gaussian/g16.c01/l123.exe at Mon Feb 19 16:14:06 2024.
 Job cpu time:       5 days 22 hours  5 minutes 37.0 seconds.
 Elapsed time:       1 days 14 hours 59 minutes  7.6 seconds.
 File lengths (MBytes):  RWF=    782 Int=      0 D2E=      0 Chk=     32 Scr=      1
