 Entering Gaussian System, Link 0=/opt/software/gaussian/g16.c01/g16
 Initial command:
 /opt/software/gaussian/g16.c01/l1.exe "/scratch/arhender/17999668/Gau-9704.inp" -scrdir="/scratch/arhender/17999668/"
 Entering Link 1 = /opt/software/gaussian/g16.c01/l1.exe PID=      9705.
  
 Copyright (c) 1988-2019, Gaussian, Inc.  All Rights Reserved.
  
 This is part of the Gaussian(R) 16 program.  It is based on
 the Gaussian(R) 09 system (copyright 2009, Gaussian, Inc.),
 the Gaussian(R) 03 system (copyright 2003, Gaussian, Inc.),
 the Gaussian(R) 98 system (copyright 1998, Gaussian, Inc.),
 the Gaussian(R) 94 system (copyright 1995, Gaussian, Inc.),
 the Gaussian 92(TM) system (copyright 1992, Gaussian, Inc.),
 the Gaussian 90(TM) system (copyright 1990, Gaussian, Inc.),
 the Gaussian 88(TM) system (copyright 1988, Gaussian, Inc.),
 the Gaussian 86(TM) system (copyright 1986, Carnegie Mellon
 University), and the Gaussian 82(TM) system (copyright 1983,
 Carnegie Mellon University). Gaussian is a federally registered
 trademark of Gaussian, Inc.
  
 This software contains proprietary and confidential information,
 including trade secrets, belonging to Gaussian, Inc.
  
 This software is provided under written license and may be
 used, copied, transmitted, or stored only in accord with that
 written license.
  
 The following legend is applicable only to US Government
 contracts under FAR:
  
                    RESTRICTED RIGHTS LEGEND
  
 Use, reproduction and disclosure by the US Government is
 subject to restrictions as set forth in subparagraphs (a)
 and (c) of the Commercial Computer Software - Restricted
 Rights clause in FAR 52.227-19.
  
 Gaussian, Inc.
 340 Quinnipiac St., Bldg. 40, Wallingford CT 06492
  
  
 ---------------------------------------------------------------
 Warning -- This program may not be used in any manner that
 competes with the business of Gaussian, Inc. or will provide
 assistance to any competitor of Gaussian, Inc.  The licensee
 of this program is prohibited from giving any competitor of
 Gaussian, Inc. access to this program.  By using this program,
 the user acknowledges that Gaussian, Inc. is engaged in the
 business of creating and licensing software in the field of
 computational chemistry and represents and warrants to the
 licensee that it is not a competitor of Gaussian, Inc. and that
 it will not use this program in any manner prohibited above.
 ---------------------------------------------------------------
  

 Cite this work as:
 Gaussian 16, Revision C.01,
 M. J. Frisch, G. W. Trucks, H. B. Schlegel, G. E. Scuseria, 
 M. A. Robb, J. R. Cheeseman, G. Scalmani, V. Barone, 
 G. A. Petersson, H. Nakatsuji, X. Li, M. Caricato, A. V. Marenich, 
 J. Bloino, B. G. Janesko, R. Gomperts, B. Mennucci, H. P. Hratchian, 
 J. V. Ortiz, A. F. Izmaylov, J. L. Sonnenberg, D. Williams-Young, 
 F. Ding, F. Lipparini, F. Egidi, J. Goings, B. Peng, A. Petrone, 
 T. Henderson, D. Ranasinghe, V. G. Zakrzewski, J. Gao, N. Rega, 
 G. Zheng, W. Liang, M. Hada, M. Ehara, K. Toyota, R. Fukuda, 
 J. Hasegawa, M. Ishida, T. Nakajima, Y. Honda, O. Kitao, H. Nakai, 
 T. Vreven, K. Throssell, J. A. Montgomery, Jr., J. E. Peralta, 
 F. Ogliaro, M. J. Bearpark, J. J. Heyd, E. N. Brothers, K. N. Kudin, 
 V. N. Staroverov, T. A. Keith, R. Kobayashi, J. Normand, 
 K. Raghavachari, A. P. Rendell, J. C. Burant, S. S. Iyengar, 
 J. Tomasi, M. Cossi, J. M. Millam, M. Klene, C. Adamo, R. Cammi, 
 J. W. Ochterski, R. L. Martin, K. Morokuma, O. Farkas, 
 J. B. Foresman, and D. J. Fox, Gaussian, Inc., Wallingford CT, 2019.
 
 ******************************************
 Gaussian 16:  ES64L-G16RevC.01  3-Jul-2019
                21-Mar-2024 
 ******************************************
 %chk=PbiLmL_to_HbiL2_IRCRevere.chk
 %mem=1600MB
 %nprocs=4
 Will use up to    4 processors via shared memory.
 ----------------------------------------------------------------------
 # irc=(reverse,calcfc,maxpoints=100,maxcycle=100) wb97xd/def2tzvpp geo
 m=connectivity
 ----------------------------------------------------------------------
 1/6=100,10=4,18=10,22=2,26=3,38=1,42=100,44=3,57=2,172=1/1,23;
 2/12=2,17=6,18=5,29=1,40=1/2;
 3/5=44,7=202,11=2,25=1,30=1,71=2,74=-58,140=1/1,2,3;
 4//1;
 5/5=2,38=5/2;
 8/6=4,10=90,11=11/1;
 11/6=1,8=1,9=11,15=111,16=1/1,2,10;
 10/6=1,13=1/2;
 6/7=2,8=2,9=2,10=2,28=1/1;
 7/10=1,25=1/1,2,3,16;
 1/6=100,10=4,18=10,22=2,26=3,42=100,44=3/23(2);
 2/29=1/2;
 99/5=20/99;
 2/29=1/2;
 3/5=44,7=202,11=2,25=1,30=1,71=2,74=-58,140=1/1,2,3;
 4/5=5,16=3,69=1/1;
 5/5=2,38=5/2;
 8/6=4,10=90,11=11/1;
 11/6=1,8=1,9=11,15=111,16=1/1,2,10;
 10/6=1,13=1/2;
 7/10=1,25=1/1,2,3,16;
 1/6=100,18=10,22=2,26=3,42=100,44=3/23(-8);
 2/29=1/2;
 6/7=2,8=2,9=2,10=2,19=2,28=1/1;
 99/5=20,9=1/99;
 ----------------------------------------------------------------------
 Modify TS discovered for PmonoL1 to HBiL3 into potential PL3 to HL3 TS
  opt Unfreeze Result of previous job and optimize to a TS
 ----------------------------------------------------------------------
 Symbolic Z-matrix:
 Charge = -2 Multiplicity = 1
 Si                    0.16115   0.44966  -0.06861 
 O                    -0.60847   1.39734  -1.31876 
 O                     1.02092  -0.59688   1.19337 
 O                     1.67729   0.50446  -0.92497 
 O                    -0.52619  -1.06178  -0.66192 
 O                    -2.0771    0.48367   0.854 
 O                     0.19827   1.74158   1.07541 
 C                    -2.59174  -0.70352   0.4752 
 H                    -3.69811  -0.68243   0.26289 
 H                    -2.45913  -1.50978   1.24373 
 C                    -1.88777  -1.18255  -0.80775 
 H                    -2.2587   -0.57311  -1.6554 
 H                    -2.14906  -2.23882  -1.01804 
 C                     2.69892  -0.23794  -0.36951 
 H                     3.28906  -0.74792  -1.15498 
 H                     3.39908   0.41194   0.19366 
 C                     2.0632   -1.24775   0.60011 
 H                     1.73829  -2.14207   0.02624 
 H                     2.81318  -1.59171   1.34214 
 H                    -0.65915   1.64891   1.49733 
 H                    -1.44503   1.61319  -0.90246 
 
 IRC-IRC-IRC-IRC-IRC-IRC-IRC-IRC-IRC-IRC-IRC-IRC-IRC-IRC-IRC-IRC-IRC-IRC
 ------------------------------------------------------------------------
 INPUT DATA FOR L123
 ------------------------------------------------------------------------
 GENERAL PARAMETERS:
 Rxn path following direction = Reverse
 Maximum points per path      = 100
 Step size                    =   0.100 bohr
 Integration scheme           = HPC                                 
    Redo corrector integration= Yes                                 
    DWI Weight Power          =  2
    DWI will use Hessian update vectors when possible.
    Max correction cycles     = 100
 Initial Hessian              = CalcFC
 Hessian evaluation           = All updating
 Hessian updating method      = Bofill                              
 ------------------------------------------------------------------------
 IRC-IRC-IRC-IRC-IRC-IRC-IRC-IRC-IRC-IRC-IRC-IRC-IRC-IRC-IRC-IRC-IRC-IRC
                          Input orientation:                          
 ---------------------------------------------------------------------
 Center     Atomic      Atomic             Coordinates (Angstroms)
 Number     Number       Type             X           Y           Z
 ---------------------------------------------------------------------
      1         14           0        0.161150    0.449661   -0.068613
      2          8           0       -0.608469    1.397335   -1.318762
      3          8           0        1.020923   -0.596878    1.193373
      4          8           0        1.677287    0.504460   -0.924965
      5          8           0       -0.526188   -1.061775   -0.661915
      6          8           0       -2.077096    0.483670    0.854001
      7          8           0        0.198268    1.741577    1.075410
      8          6           0       -2.591740   -0.703523    0.475201
      9          1           0       -3.698108   -0.682432    0.262894
     10          1           0       -2.459126   -1.509781    1.243728
     11          6           0       -1.887769   -1.182549   -0.807747
     12          1           0       -2.258695   -0.573110   -1.655401
     13          1           0       -2.149060   -2.238818   -1.018037
     14          6           0        2.698920   -0.237938   -0.369510
     15          1           0        3.289064   -0.747919   -1.154980
     16          1           0        3.399083    0.411938    0.193657
     17          6           0        2.063196   -1.247752    0.600114
     18          1           0        1.738287   -2.142068    0.026238
     19          1           0        2.813181   -1.591714    1.342142
     20          1           0       -0.659150    1.648914    1.497328
     21          1           0       -1.445028    1.613186   -0.902462
 ---------------------------------------------------------------------
                    Distance matrix (angstroms):
                    1          2          3          4          5
     1  Si   0.000000
     2  O    1.747361   0.000000
     3  O    1.851233   3.597586   0.000000
     4  O    1.742129   2.485354   2.476109   0.000000
     5  O    1.763202   2.546653   2.460036   2.716172   0.000000
     6  O    2.421181   2.777147   3.298557   4.154581   2.663028
     7  O    1.726040   2.549782   2.481743   2.778391   3.376672
     8  C    3.033805   3.400775   3.684899   4.652341   2.384928
     9  H    4.035518   4.046348   4.810651   5.631571   3.325695
    10  H    3.525266   4.294486   3.598148   5.086286   2.751079
    11  C    2.721856   2.924645   3.578824   3.945803   1.374684
    12  H    3.069138   2.592147   4.344188   4.145678   2.056061
    13  H    3.669659   3.960488   4.199416   4.709052   2.036165
    14  C    2.646433   3.809727   2.321016   1.379645   3.341486
    15  H    3.521113   4.451932   3.268339   2.054066   3.859762
    16  H    3.248756   4.395326   2.769980   2.055348   4.279204
    17  C    2.635562   4.220944   1.364524   2.354791   2.886557
    18  H    3.035361   4.454623   2.065049   2.812938   2.601622
    19  H    3.631902   5.265217   2.055242   3.289981   3.930454
    20  H    2.136181   2.827759   2.821102   3.554746   3.468118
    21  H    2.151488   0.959025   3.918906   3.313402   2.838582
                    6          7          8          9         10
     6  O    0.000000
     7  O    2.609336   0.000000
     8  C    1.348249   3.758046   0.000000
     9  H    2.082518   4.660230   1.126752   0.000000
    10  H    2.066805   4.202547   1.121727   1.783709   0.000000
    11  C    2.360834   4.055656   1.539804   2.161878   2.154549
    12  H    2.728894   4.341863   2.160415   2.400774   3.053273
    13  H    3.304791   5.073067   2.186974   2.542178   2.396501
    14  C    4.982773   3.501362   5.377861   6.443561   5.552077
    15  H    5.860758   4.552499   6.102730   7.129883   6.275024
    16  H    5.516315   3.576401   6.100285   7.181404   6.254140
    17  C    4.494919   3.555271   4.688306   5.798787   4.575401
    18  H    4.704980   4.307565   4.584770   5.633909   4.415919
    19  H    5.334820   4.244967   5.545597   6.662466   5.273862
    20  H    1.944797   0.960087   3.211481   4.024210   3.644390
    21  H    2.181852   2.574662   2.929171   3.421153   3.922684
                   11         12         13         14         15
    11  C    0.000000
    12  H    1.107935   0.000000
    13  H    1.108241   1.786851   0.000000
    14  C    4.703409   5.132621   5.284602   0.000000
    15  H    5.206637   5.573025   5.640454   1.106939   0.000000
    16  H    5.612130   6.033224   6.267105   1.108929   1.782188
    17  C    4.194812   4.921507   4.619927   1.537544   2.198395
    18  H    3.842459   4.611443   4.026331   2.169134   2.396630
    19  H    5.185400   5.978858   5.532904   2.185296   2.678446
    20  H    3.852280   4.175600   4.864294   4.280412   5.326156
    21  H    2.832159   2.451298   3.917519   4.569792   5.296245
                   16         17         18         19         20
    16  H    0.000000
    17  C    2.168956   0.000000
    18  H    3.051101   1.111171   0.000000
    19  H    2.382629   1.109681   1.786026   0.000000
    20  H    4.438347   4.075148   4.720525   4.752140   0.000000
    21  H    5.109783   4.769731   5.009782   5.782904   2.525445
                   21
    21  H    0.000000
 Symmetry turned off by external request.
 Stoichiometry    C4H10O6Si(2-)
 Framework group  C1[X(C4H10O6Si)]
 Deg. of freedom    57
 Full point group                 C1      NOp   1
 Rotational constants (GHZ):           1.6300313           0.8425838           0.7771140
 Standard basis: def2TZVPP (5D, 7F)
   492 basis functions,   749 primitive gaussians,   558 cartesian basis functions
    49 alpha electrons       49 beta electrons
       nuclear repulsion energy       871.6436431792 Hartrees.
 NAtoms=   21 NActive=   21 NUniq=   21 SFac= 1.00D+00 NAtFMM=   60 NAOKFM=F Big=F
 Integral buffers will be    131072 words long.
 Raffenetti 2 integral format.
 Two-electron integral symmetry is turned off.
 Nuclear repulsion after empirical dispersion term =      871.6315313497 Hartrees.
 One-electron integrals computed using PRISM.
   1 Symmetry operations used in ECPInt.
 ECPInt:  NShTT=   17020 NPrTT=   47563 LenC2=   16205 LenP2D=   35039.
 LDataN:  DoStor=T MaxTD1= 6 Len=  172
 NBasis=   492 RedAO= T EigKep=  2.58D-04  NBF=   492
 NBsUse=   492 1.00D-06 EigRej= -1.00D+00 NBFU=   492
 ExpMin= 7.01D-02 ExpMax= 4.48D+04 ExpMxC= 1.53D+03 IAcc=3 IRadAn=         5 AccDes= 0.00D+00
 Harris functional with IExCor= 4639 and IRadAn=       5 diagonalized for initial guess.
 HarFok:  IExCor= 4639 AccDes= 0.00D+00 IRadAn=         5 IDoV= 1 UseB2=F ITyADJ=14
 ICtDFT=  3500011 ScaDFX=  1.000000  1.000000  1.000000  1.000000
 FoFCou: FMM=F IPFlag=           0 FMFlag=      100000 FMFlg1=           0
         NFxFlg=           0 DoJE=T BraDBF=F KetDBF=T FulRan=T
         wScrn=  0.000000 ICntrl=       500 IOpCl=  0 I1Cent=   200000004 NGrid=           0
         NMat0=    1 NMatS0=      1 NMatT0=    0 NMatD0=    1 NMtDS0=    0 NMtDT0=    0
 Symmetry not used in FoFCou.
 Requested convergence on RMS density matrix=1.00D-08 within 128 cycles.
 Requested convergence on MAX density matrix=1.00D-06.
 Requested convergence on             energy=1.00D-06.
 No special actions if energy rises.
 Integral accuracy reduced to 1.0D-05 until final iterations.
 Initial convergence to 1.0D-05 achieved.  Increase integral accuracy.
 SCF Done:  E(RwB97XD) =  -899.450148026     A.U. after   16 cycles
            NFock= 16  Conv=0.30D-08     -V/T= 2.0035
 DoSCS=F DFT=T ScalE2(SS,OS)=  1.000000  1.000000
 Range of M.O.s used for correlation:     1   492
 NBasis=   492 NAE=    49 NBE=    49 NFC=     0 NFV=     0
 NROrb=    492 NOA=    49 NOB=    49 NVA=   443 NVB=   443

 **** Warning!!: The largest alpha MO coefficient is  0.10702145D+02

   1 Symmetry operations used in ECPInt.
 ECPInt:  NShTT=   17020 NPrTT=   47563 LenC2=   16205 LenP2D=   35039.
 LDataN:  DoStor=T MaxTD1= 7 Len=  274
 Symmetrizing basis deriv contribution to polar:
 IMax=3 JMax=2 DiffMx= 0.00D+00
 G2DrvN: will do    22 centers at a time, making    1 passes.
 Calling FoFCou, ICntrl=  3107 FMM=F I1Cent=   0 AccDes= 0.00D+00.
 End of G2Drv F.D. properties file   721 does not exist.
 End of G2Drv F.D. properties file   722 does not exist.
 End of G2Drv F.D. properties file   788 does not exist.
          IDoAtm=111111111111111111111
          Differentiating once with respect to nuclear coordinates.
 CalDSu exits because no D1Ps are significant.
          There are    66 degrees of freedom in the 1st order CPHF.  IDoFFX=6 NUNeed=     0.
     60 vectors produced by pass  0 Test12= 3.29D-14 1.52D-09 XBig12= 9.04D-02 3.82D-02.
 AX will form    60 AO Fock derivatives at one time.
     60 vectors produced by pass  1 Test12= 3.29D-14 1.52D-09 XBig12= 3.18D-02 2.18D-02.
     60 vectors produced by pass  2 Test12= 3.29D-14 1.52D-09 XBig12= 6.23D-04 3.18D-03.
     60 vectors produced by pass  3 Test12= 3.29D-14 1.52D-09 XBig12= 9.91D-06 3.73D-04.
     60 vectors produced by pass  4 Test12= 3.29D-14 1.52D-09 XBig12= 1.33D-07 3.60D-05.
     60 vectors produced by pass  5 Test12= 3.29D-14 1.52D-09 XBig12= 1.36D-09 3.28D-06.
     60 vectors produced by pass  6 Test12= 3.29D-14 1.52D-09 XBig12= 1.16D-11 2.96D-07.
     33 vectors produced by pass  7 Test12= 3.29D-14 1.52D-09 XBig12= 7.91D-14 2.58D-08.
      3 vectors produced by pass  8 Test12= 3.29D-14 1.52D-09 XBig12= 7.84D-16 1.96D-09.
 InvSVY:  IOpt=1 It=  1 EMax= 3.33D-16
 Solved reduced A of dimension   456 with    66 vectors.
 End of Minotr F.D. properties file   721 does not exist.
 End of Minotr F.D. properties file   722 does not exist.
 End of Minotr F.D. properties file   788 does not exist.

 **********************************************************************

            Population analysis using the SCF Density.

 **********************************************************************

 Alpha  occ. eigenvalues --  -65.97560 -18.90599 -18.88895 -18.87888 -18.86959
 Alpha  occ. eigenvalues --  -18.86712 -18.84904 -10.03508 -10.02531 -10.01376
 Alpha  occ. eigenvalues --  -10.00835  -5.08213  -3.42978  -3.42663  -3.42625
 Alpha  occ. eigenvalues --   -0.81034  -0.77571  -0.74468  -0.73551  -0.71497
 Alpha  occ. eigenvalues --   -0.70641  -0.51048  -0.48452  -0.38979  -0.36620
 Alpha  occ. eigenvalues --   -0.29774  -0.27969  -0.25922  -0.25211  -0.23719
 Alpha  occ. eigenvalues --   -0.22094  -0.21194  -0.19384  -0.17646  -0.17360
 Alpha  occ. eigenvalues --   -0.16292  -0.16026  -0.10939  -0.08862  -0.07453
 Alpha  occ. eigenvalues --   -0.07330  -0.06567  -0.04835  -0.03837  -0.02287
 Alpha  occ. eigenvalues --   -0.01655   0.00221   0.01316   0.02170
 Alpha virt. eigenvalues --    0.37124   0.38260   0.40851   0.41209   0.42168
 Alpha virt. eigenvalues --    0.42780   0.42826   0.46128   0.46809   0.47306
 Alpha virt. eigenvalues --    0.49458   0.49743   0.51544   0.53249   0.53519
 Alpha virt. eigenvalues --    0.54318   0.54960   0.55427   0.55914   0.57494
 Alpha virt. eigenvalues --    0.59066   0.62117   0.65633   0.66272   0.67581
 Alpha virt. eigenvalues --    0.68735   0.69248   0.69711   0.70903   0.71244
 Alpha virt. eigenvalues --    0.72110   0.72318   0.74294   0.74499   0.74848
 Alpha virt. eigenvalues --    0.75880   0.76494   0.77184   0.77768   0.78558
 Alpha virt. eigenvalues --    0.79404   0.79576   0.80509   0.81917   0.82443
 Alpha virt. eigenvalues --    0.84020   0.84387   0.84641   0.85598   0.87630
 Alpha virt. eigenvalues --    0.88284   0.89470   0.89561   0.91466   0.92845
 Alpha virt. eigenvalues --    0.93859   0.96040   0.96397   0.98417   0.99105
 Alpha virt. eigenvalues --    1.02175   1.02923   1.05002   1.05198   1.05648
 Alpha virt. eigenvalues --    1.06603   1.09732   1.10512   1.11997   1.12706
 Alpha virt. eigenvalues --    1.13079   1.14333   1.16010   1.16579   1.18094
 Alpha virt. eigenvalues --    1.19585   1.19987   1.20678   1.21521   1.22309
 Alpha virt. eigenvalues --    1.22880   1.24476   1.25430   1.26725   1.29059
 Alpha virt. eigenvalues --    1.31567   1.32225   1.33202   1.34433   1.34462
 Alpha virt. eigenvalues --    1.37610   1.39327   1.39770   1.40684   1.41687
 Alpha virt. eigenvalues --    1.42253   1.42553   1.44167   1.45625   1.46970
 Alpha virt. eigenvalues --    1.48206   1.48761   1.49594   1.51261   1.52723
 Alpha virt. eigenvalues --    1.54528   1.54971   1.55849   1.57369   1.57481
 Alpha virt. eigenvalues --    1.59370   1.60801   1.62068   1.62560   1.64161
 Alpha virt. eigenvalues --    1.65450   1.66075   1.68211   1.69121   1.70644
 Alpha virt. eigenvalues --    1.71117   1.72198   1.74250   1.75084   1.77011
 Alpha virt. eigenvalues --    1.77420   1.78367   1.79268   1.81704   1.82045
 Alpha virt. eigenvalues --    1.84738   1.86784   1.87195   1.87647   1.90182
 Alpha virt. eigenvalues --    1.91218   1.91769   1.92624   1.96132   1.96836
 Alpha virt. eigenvalues --    1.98171   2.00314   2.02636   2.04322   2.09276
 Alpha virt. eigenvalues --    2.10161   2.13436   2.18096   2.19213   2.21952
 Alpha virt. eigenvalues --    2.24453   2.26280   2.26940   2.31519   2.31711
 Alpha virt. eigenvalues --    2.34522   2.35463   2.37735   2.38653   2.40037
 Alpha virt. eigenvalues --    2.40746   2.41947   2.42682   2.44976   2.46967
 Alpha virt. eigenvalues --    2.47791   2.47995   2.51269   2.52184   2.54265
 Alpha virt. eigenvalues --    2.56743   2.57581   2.60281   2.61042   2.64820
 Alpha virt. eigenvalues --    2.65347   2.67869   2.69949   2.70317   2.71363
 Alpha virt. eigenvalues --    2.75072   2.76229   2.77092   2.80964   2.83099
 Alpha virt. eigenvalues --    2.84768   2.85699   2.87868   2.93331   2.94984
 Alpha virt. eigenvalues --    2.97443   2.98878   3.00632   3.01718   3.02686
 Alpha virt. eigenvalues --    3.03639   3.04389   3.06416   3.11294   3.13598
 Alpha virt. eigenvalues --    3.16000   3.17918   3.18549   3.19647   3.21318
 Alpha virt. eigenvalues --    3.21891   3.24246   3.25905   3.27563   3.29073
 Alpha virt. eigenvalues --    3.31646   3.32100   3.33231   3.34000   3.35776
 Alpha virt. eigenvalues --    3.37354   3.38571   3.39904   3.40801   3.41787
 Alpha virt. eigenvalues --    3.44033   3.45373   3.47408   3.48639   3.49881
 Alpha virt. eigenvalues --    3.50622   3.51337   3.52116   3.52703   3.53287
 Alpha virt. eigenvalues --    3.54500   3.56974   3.58361   3.60178   3.62989
 Alpha virt. eigenvalues --    3.63414   3.63993   3.67322   3.68240   3.69729
 Alpha virt. eigenvalues --    3.71379   3.74404   3.75248   3.75660   3.78658
 Alpha virt. eigenvalues --    3.79398   3.81389   3.82637   3.83761   3.87088
 Alpha virt. eigenvalues --    3.88470   3.89297   3.91330   3.91948   3.92800
 Alpha virt. eigenvalues --    3.94604   3.95305   3.95940   3.97971   3.99050
 Alpha virt. eigenvalues --    4.00365   4.00579   4.04853   4.05054   4.07078
 Alpha virt. eigenvalues --    4.09352   4.10650   4.11208   4.12694   4.14238
 Alpha virt. eigenvalues --    4.15073   4.17095   4.18013   4.19851   4.20221
 Alpha virt. eigenvalues --    4.21567   4.23186   4.25780   4.30277   4.31263
 Alpha virt. eigenvalues --    4.33383   4.35440   4.36006   4.36697   4.38639
 Alpha virt. eigenvalues --    4.40710   4.41122   4.42556   4.44790   4.45809
 Alpha virt. eigenvalues --    4.47437   4.49994   4.50197   4.52534   4.54054
 Alpha virt. eigenvalues --    4.55641   4.56149   4.57207   4.60800   4.62580
 Alpha virt. eigenvalues --    4.64002   4.64965   4.66436   4.67248   4.69030
 Alpha virt. eigenvalues --    4.69204   4.69777   4.72515   4.73309   4.75830
 Alpha virt. eigenvalues --    4.76774   4.80828   4.83180   4.86155   4.92300
 Alpha virt. eigenvalues --    4.94658   4.95661   4.97565   5.01530   5.02481
 Alpha virt. eigenvalues --    5.02712   5.04337   5.06244   5.09267   5.13264
 Alpha virt. eigenvalues --    5.15595   5.17197   5.18084   5.19302   5.22769
 Alpha virt. eigenvalues --    5.24776   5.28450   5.29739   5.30590   5.33079
 Alpha virt. eigenvalues --    5.36189   5.36989   5.38340   5.40036   5.41197
 Alpha virt. eigenvalues --    5.43268   5.44989   5.47536   5.48874   5.52215
 Alpha virt. eigenvalues --    5.52872   5.58375   5.61793   5.63273   5.63846
 Alpha virt. eigenvalues --    5.66049   5.67612   5.70278   5.71844   5.72908
 Alpha virt. eigenvalues --    5.75238   5.78266   5.79324   5.80804   5.82665
 Alpha virt. eigenvalues --    5.84349   5.85402   5.87116   5.87343   5.90133
 Alpha virt. eigenvalues --    5.91185   5.93424   5.94372   5.95501   5.98233
 Alpha virt. eigenvalues --    5.99209   6.00545   6.02815   6.04972   6.08753
 Alpha virt. eigenvalues --    6.10858   6.12757   6.13998   6.15942   6.26751
 Alpha virt. eigenvalues --    6.38175   6.38873   6.43958   6.48299   6.49837
 Alpha virt. eigenvalues --    6.51552   6.52864   6.55040   6.61084   6.62710
 Alpha virt. eigenvalues --    6.64807   6.66499   6.69915   6.87707   6.91357
 Alpha virt. eigenvalues --    6.95611   6.96817   6.99151   7.00972   7.02588
 Alpha virt. eigenvalues --    7.04467   7.06416   7.08161   7.10149   7.11837
 Alpha virt. eigenvalues --    7.12996   7.15228   7.18258   7.19198   7.21761
 Alpha virt. eigenvalues --    7.23771   7.29762   7.32614   7.33741   7.39444
 Alpha virt. eigenvalues --    7.41091   7.43840   7.45633   7.47477   7.48850
 Alpha virt. eigenvalues --    7.56275   7.59648   7.62440   7.66440   7.69722
 Alpha virt. eigenvalues --    7.77302   7.79458   7.84070   7.91168   7.94613
 Alpha virt. eigenvalues --    8.03316   8.07183  12.38999  23.67980  23.72454
 Alpha virt. eigenvalues --   23.81201  23.83771  44.26981  44.34636  44.49180
 Alpha virt. eigenvalues --   44.53796  44.63959  44.69532
          Condensed to atoms (all electrons):
               1          2          3          4          5          6
     1  Si  11.519576   0.395915   0.293681   0.383967   0.325220   0.118236
     2  O    0.395915   8.034110   0.005859  -0.037325  -0.068004  -0.037719
     3  O    0.293681   0.005859   8.183397  -0.038312  -0.057457  -0.005994
     4  O    0.383967  -0.037325  -0.038312   8.042423  -0.029405   0.000489
     5  O    0.325220  -0.068004  -0.057457  -0.029405   8.106812  -0.014878
     6  O    0.118236  -0.037719  -0.005994   0.000489  -0.014878   8.531484
     7  O    0.428023  -0.074572  -0.072994  -0.023186  -0.003601  -0.057515
     8  C   -0.041710  -0.001707   0.005300  -0.001525  -0.116683   0.432628
     9  H    0.010547  -0.000910  -0.000063   0.000026   0.008091  -0.043998
    10  H   -0.006674  -0.000748   0.001249  -0.000024   0.020624  -0.074859
    11  C   -0.042319   0.004431   0.002855   0.001022   0.351234  -0.200074
    12  H   -0.013485   0.026899  -0.000759   0.000485  -0.061955   0.016970
    13  H    0.009443   0.000838  -0.000906  -0.000211  -0.042130   0.015400
    14  C   -0.074994   0.004141  -0.137673   0.372235  -0.006966  -0.000926
    15  H    0.000511  -0.000019   0.009951  -0.050447   0.000585   0.000002
    16  H    0.008239   0.000044   0.015598  -0.065708  -0.000343   0.000028
    17  C   -0.054430  -0.003133   0.413598  -0.110486   0.000262  -0.001483
    18  H    0.014442   0.000292  -0.069598   0.011030   0.022304   0.000457
    19  H   -0.009500   0.000033  -0.046868   0.006510  -0.000093  -0.000052
    20  H   -0.062717   0.006443   0.006354   0.002031  -0.001870   0.023997
    21  H   -0.078173   0.318360  -0.000111   0.003925   0.007583   0.037794
               7          8          9         10         11         12
     1  Si   0.428023  -0.041710   0.010547  -0.006674  -0.042319  -0.013485
     2  O   -0.074572  -0.001707  -0.000910  -0.000748   0.004431   0.026899
     3  O   -0.072994   0.005300  -0.000063   0.001249   0.002855  -0.000759
     4  O   -0.023186  -0.001525   0.000026  -0.000024   0.001022   0.000485
     5  O   -0.003601  -0.116683   0.008091   0.020624   0.351234  -0.061955
     6  O   -0.057515   0.432628  -0.043998  -0.074859  -0.200074   0.016970
     7  O    8.012231   0.004895  -0.000800   0.000856  -0.005798   0.000630
     8  C    0.004895   4.847457   0.171332   0.356017   0.267162  -0.097086
     9  H   -0.000800   0.171332   1.139999  -0.139946  -0.036350  -0.012530
    10  H    0.000856   0.356017  -0.139946   1.031417  -0.133748   0.029755
    11  C   -0.005798   0.267162  -0.036350  -0.133748   5.102001   0.337344
    12  H    0.000630  -0.097086  -0.012530   0.029755   0.337344   0.897977
    13  H   -0.000081  -0.015090   0.023702  -0.011041   0.245590  -0.084078
    14  C    0.002142  -0.000359  -0.000023   0.000077   0.002048  -0.000331
    15  H   -0.000317   0.000008  -0.000001  -0.000005   0.000084   0.000025
    16  H    0.000862  -0.000045   0.000001  -0.000004  -0.000070  -0.000002
    17  C   -0.000140   0.000511  -0.000107   0.001128  -0.004141  -0.000155
    18  H   -0.000909  -0.000766   0.000047   0.000018  -0.000171   0.000619
    19  H   -0.000552   0.000139  -0.000005  -0.000007   0.000298  -0.000002
    20  H    0.325812   0.002780  -0.000716  -0.002315   0.004332  -0.000785
    21  H   -0.000234   0.005792  -0.004096   0.003266  -0.017719   0.006704
              13         14         15         16         17         18
     1  Si   0.009443  -0.074994   0.000511   0.008239  -0.054430   0.014442
     2  O    0.000838   0.004141  -0.000019   0.000044  -0.003133   0.000292
     3  O   -0.000906  -0.137673   0.009951   0.015598   0.413598  -0.069598
     4  O   -0.000211   0.372235  -0.050447  -0.065708  -0.110486   0.011030
     5  O   -0.042130  -0.006966   0.000585  -0.000343   0.000262   0.022304
     6  O    0.015400  -0.000926   0.000002   0.000028  -0.001483   0.000457
     7  O   -0.000081   0.002142  -0.000317   0.000862  -0.000140  -0.000909
     8  C   -0.015090  -0.000359   0.000008  -0.000045   0.000511  -0.000766
     9  H    0.023702  -0.000023  -0.000001   0.000001  -0.000107   0.000047
    10  H   -0.011041   0.000077  -0.000005  -0.000004   0.001128   0.000018
    11  C    0.245590   0.002048   0.000084  -0.000070  -0.004141  -0.000171
    12  H   -0.084078  -0.000331   0.000025  -0.000002  -0.000155   0.000619
    13  H    0.914475  -0.000320   0.000018   0.000000   0.000545  -0.000241
    14  C   -0.000320   4.964798   0.285390   0.347258   0.227422  -0.123128
    15  H    0.000018   0.285390   0.924701  -0.118523  -0.005298  -0.011343
    16  H    0.000000   0.347258  -0.118523   0.909221  -0.060552   0.026277
    17  C    0.000545   0.227422  -0.005298  -0.060552   4.845252   0.371195
    18  H   -0.000241  -0.123128  -0.011343   0.026277   0.371195   0.919034
    19  H   -0.000118   0.008150   0.015479  -0.028151   0.270179  -0.121261
    20  H   -0.000272  -0.000672   0.000048   0.000033  -0.000675   0.000064
    21  H    0.000592  -0.001130   0.000023   0.000089  -0.000035   0.000125
              19         20         21
     1  Si  -0.009500  -0.062717  -0.078173
     2  O    0.000033   0.006443   0.318360
     3  O   -0.046868   0.006354  -0.000111
     4  O    0.006510   0.002031   0.003925
     5  O   -0.000093  -0.001870   0.007583
     6  O   -0.000052   0.023997   0.037794
     7  O   -0.000552   0.325812  -0.000234
     8  C    0.000139   0.002780   0.005792
     9  H   -0.000005  -0.000716  -0.004096
    10  H   -0.000007  -0.002315   0.003266
    11  C    0.000298   0.004332  -0.017719
    12  H   -0.000002  -0.000785   0.006704
    13  H   -0.000118  -0.000272   0.000592
    14  C    0.008150  -0.000672  -0.001130
    15  H    0.015479   0.000048   0.000023
    16  H   -0.028151   0.000033   0.000089
    17  C    0.270179  -0.000675  -0.000035
    18  H   -0.121261   0.000064   0.000125
    19  H    0.958486   0.000076  -0.000019
    20  H    0.000076   0.528332  -0.001390
    21  H   -0.000019  -0.001390   0.582461
 Mulliken charges:
               1
     1  Si   0.876202
     2  O   -0.573228
     3  O   -0.507107
     4  O   -0.467516
     5  O   -0.439329
     6  O   -0.739987
     7  O   -0.534751
     8  C    0.180951
     9  H   -0.114200
    10  H   -0.075036
    11  C    0.121991
    12  H   -0.046241
    13  H   -0.056117
    14  C    0.132860
    15  H   -0.050870
    16  H   -0.034251
    17  C    0.110542
    18  H   -0.038487
    19  H   -0.052725
    20  H    0.171109
    21  H    0.136193
 Sum of Mulliken charges =  -2.00000
 Mulliken charges with hydrogens summed into heavy atoms:
               1
     1  Si   0.876202
     2  O   -0.437035
     3  O   -0.507107
     4  O   -0.467516
     5  O   -0.439329
     6  O   -0.739987
     7  O   -0.363643
     8  C   -0.008285
    11  C    0.019632
    14  C    0.047738
    17  C    0.019330
 APT charges:
               1
     1  Si   0.008239
     2  O   -0.525801
     3  O   -0.399216
     4  O   -0.370762
     5  O   -0.394681
     6  O   -0.599651
     7  O   -0.533884
     8  C   -0.573614
     9  H    0.248889
    10  H    0.171330
    11  C   -0.392778
    12  H    0.198674
    13  H    0.284702
    14  C   -0.528121
    15  H    0.341866
    16  H    0.343473
    17  C   -0.442018
    18  H    0.167440
    19  H    0.339137
    20  H    0.324216
    21  H    0.332560
 Sum of APT charges =  -2.00000
 APT charges with hydrogens summed into heavy atoms:
               1
     1  Si   0.008239
     2  O   -0.193241
     3  O   -0.399216
     4  O   -0.370762
     5  O   -0.394681
     6  O   -0.599651
     7  O   -0.209669
     8  C   -0.153395
    11  C    0.090599
    14  C    0.157218
    17  C    0.064559
 Electronic spatial extent (au):  <R**2>=           1790.6178
 Charge=             -2.0000 electrons
 Dipole moment (field-independent basis, Debye):
    X=              1.5656    Y=             -2.6119    Z=             -0.6057  Tot=              3.1048
 Quadrupole moment (field-independent basis, Debye-Ang):
   XX=           -107.7105   YY=            -96.5343   ZZ=            -96.1183
   XY=             -2.3329   XZ=              2.2800   YZ=              1.6408
 Traceless Quadrupole moment (field-independent basis, Debye-Ang):
   XX=             -7.5895   YY=              3.5867   ZZ=              4.0027
   XY=             -2.3329   XZ=              2.2800   YZ=              1.6408
 Octapole moment (field-independent basis, Debye-Ang**2):
  XXX=             29.1496  YYY=              4.6753  ZZZ=              3.9019  XYY=             -1.5443
  XXY=             14.0275  XXZ=            -10.3155  XZZ=              0.7143  YZZ=             -2.2922
  YYZ=              0.5509  XYZ=              3.4006
 Hexadecapole moment (field-independent basis, Debye-Ang**3):
 XXXX=          -1772.9948 YYYY=           -649.2919 ZZZZ=           -461.3519 XXXY=            -20.2413
 XXXZ=             41.5148 YYYX=            -19.9775 YYYZ=             -1.6466 ZZZX=            -10.9940
 ZZZY=             15.6686 XXYY=           -381.2027 XXZZ=           -359.8572 YYZZ=           -195.5688
 XXYZ=             -0.0031 YYXZ=             -9.5281 ZZXY=             -6.0896
 N-N= 8.716315313497D+02 E-N=-3.903231923719D+03  KE= 8.963016418628D+02
  Exact polarizability:       0.000       0.000       0.000       0.000       0.000       0.000
 Approx polarizability:     118.242       0.633     110.618       1.136       1.562     103.784
   1 Symmetry operations used in ECPInt.
 ECPInt:  NShTT=   17020 NPrTT=   47563 LenC2=   16205 LenP2D=   35039.
 LDataN:  DoStor=T MaxTD1= 8 Len=  415
 Calling FoFJK, ICntrl=    100127 FMM=F ISym2X=0 I1Cent= 0 IOpClX= 0 NMat=1 NMatS=1 NMatT=0.
 -------------------------------------------------------------------
 Center     Atomic                   Forces (Hartrees/Bohr)
 Number     Number              X              Y              Z
 -------------------------------------------------------------------
      1       14           0.000000556    0.000001212    0.000000385
      2        8           0.000001559   -0.000001127   -0.000001251
      3        8           0.000000099   -0.000000427    0.000000371
      4        8          -0.000000025   -0.000001069    0.000000277
      5        8           0.000000471   -0.000000915   -0.000000839
      6        8          -0.000001339   -0.000000169   -0.000000655
      7        8           0.000000295   -0.000000584   -0.000001097
      8        6           0.000000099    0.000001806   -0.000000309
      9        1          -0.000000428    0.000001184   -0.000000855
     10        1          -0.000000741    0.000000679   -0.000000126
     11        6          -0.000000584    0.000000001    0.000000416
     12        1           0.000001008    0.000001346   -0.000000674
     13        1          -0.000000227    0.000000462    0.000000112
     14        6           0.000000125   -0.000000359    0.000000961
     15        1           0.000000164   -0.000001388    0.000000958
     16        1           0.000000233   -0.000000810    0.000000589
     17        6          -0.000000310   -0.000000158    0.000001343
     18        1          -0.000000884   -0.000000772    0.000000875
     19        1          -0.000000565   -0.000000317    0.000001278
     20        1           0.000000430    0.000001259   -0.000001015
     21        1           0.000000065    0.000000144   -0.000000743
 -------------------------------------------------------------------
 Cartesian Forces:  Max     0.000001806 RMS     0.000000793
 IRC-IRC-IRC-IRC-IRC-IRC-IRC-IRC-IRC-IRC-IRC-IRC-IRC-IRC-IRC-IRC-IRC-IRC
          ******** Start new reaction path calculation ********
 Supplied step size of   0.1000 bohr.
    Integration on MW PES will use step size of   0.2934 sqrt(amu)*bohr.
 Point Number:   0          Path Number:   1
 Calculating another point on the path.
 IRC-IRC-IRC-IRC-IRC-IRC-IRC-IRC-IRC-IRC-IRC-IRC-IRC-IRC-IRC-IRC-IRC-IRC
                          Input orientation:                          
 ---------------------------------------------------------------------
 Center     Atomic      Atomic             Coordinates (Angstroms)
 Number     Number       Type             X           Y           Z
 ---------------------------------------------------------------------
      1         14           0        0.145048    0.418695   -0.066999
      2          8           0       -0.619141    1.367370   -1.320959
      3          8           0        1.003882   -0.629352    1.194599
      4          8           0        1.664078    0.472460   -0.923450
      5          8           0       -0.533395   -1.095846   -0.672492
      6          8           0       -2.058613    0.444811    0.853080
      7          8           0        0.198156    1.718491    1.071049
      8          6           0       -2.590626   -0.736124    0.474582
      9          1           0       -3.696837   -0.699397    0.268026
     10          1           0       -2.463794   -1.544448    1.241378
     11          6           0       -1.894878   -1.217107   -0.812160
     12          1           0       -2.270127   -0.607500   -1.658124
     13          1           0       -2.158498   -2.273177   -1.020788
     14          6           0        2.685092   -0.268491   -0.366350
     15          1           0        3.277060   -0.779254   -1.150252
     16          1           0        3.384592    0.381822    0.197578
     17          6           0        2.048604   -1.278377    0.602792
     18          1           0        1.725837   -2.173201    0.028581
     19          1           0        2.797556   -1.621190    1.346470
     20          1           0       -0.648767    1.623722    1.512501
     21          1           0       -1.452761    1.592406   -0.904440
 ---------------------------------------------------------------------
                    Distance matrix (angstroms):
                    1          2          3          4          5
     1  Si   0.000000
     2  O    1.748252   0.000000
     3  O    1.851385   3.598491   0.000000
     4  O    1.744663   2.484344   2.477091   0.000000
     5  O    1.766562   2.548587   2.463101   2.711356   0.000000
     6  O    2.388169   2.765798   3.263332   4.124955   2.650903
     7  O    1.728423   2.552051   2.485323   2.771200   3.390516
     8  C    3.018415   3.396381   3.667466   4.638714   2.382725
     9  H    4.015278   4.033436   4.791680   5.615360   3.324021
    10  H    3.517362   4.294997   3.586692   5.078752   2.755101
    11  C    2.718899   2.926756   3.574262   3.941217   1.373990
    12  H    3.068849   2.596064   4.342539   4.145363   2.055771
    13  H    3.669089   3.964000   4.196516   4.707450   2.036757
    14  C    2.648330   3.808579   2.322337   1.379071   3.337199
    15  H    3.523920   4.451686   3.269271   2.054248   3.853316
    16  H    3.250539   4.393989   2.772058   2.055502   4.276815
    17  C    2.636702   4.221097   1.364886   2.354295   2.885547
    18  H    3.037426   4.455987   2.065015   2.812419   2.599293
    19  H    3.632468   5.265025   2.055255   3.289480   3.930321
    20  H    2.139405   2.845188   2.812233   3.550847   3.490496
    21  H    2.152185   0.958671   3.921386   3.311997   2.850567
                    6          7          8          9         10
     6  O    0.000000
     7  O    2.600534   0.000000
     8  C    1.349409   3.762740   0.000000
     9  H    2.082133   4.654245   1.125930   0.000000
    10  H    2.066905   4.214470   1.121361   1.783794   0.000000
    11  C    2.358348   4.067555   1.539843   2.163766   2.155884
    12  H    2.730979   4.353280   2.160487   2.398750   3.053276
    13  H    3.302849   5.085569   2.187555   2.550355   2.396173
    14  C    4.949600   3.492716   5.362746   6.427840   5.542912
    15  H    5.829329   4.544508   6.088652   7.117101   6.266004
    16  H    5.482894   3.564128   6.085208   7.163842   6.245290
    17  C    4.461082   3.553117   4.672572   5.784235   4.565119
    18  H    4.675024   4.308807   4.571210   5.624484   4.406723
    19  H    5.300394   4.241015   5.529560   6.647547   5.262958
    20  H    1.952520   0.959760   3.227532   4.029433   3.661302
    21  H    2.184699   2.577592   2.935727   3.415101   3.932757
                   11         12         13         14         15
    11  C    0.000000
    12  H    1.108191   0.000000
    13  H    1.108289   1.786935   0.000000
    14  C    4.698377   5.132037   5.282747   0.000000
    15  H    5.201438   5.573035   5.638604   1.107162   0.000000
    16  H    5.607936   6.033096   6.265723   1.109154   1.782219
    17  C    4.190094   4.920697   4.617937   1.537603   2.198042
    18  H    3.838038   4.611304   4.024827   2.168885   2.395627
    19  H    5.180917   5.978007   5.530955   2.185451   2.678133
    20  H    3.876487   4.202384   4.886989   4.269094   5.317580
    21  H    2.845584   2.464897   3.931200   4.568840   5.296828
                   16         17         18         19         20
    16  H    0.000000
    17  C    2.169176   0.000000
    18  H    3.050930   1.111129   0.000000
    19  H    2.382566   1.109733   1.786093   0.000000
    20  H    4.420331   4.065164   4.717774   4.736472   0.000000
    21  H    5.106852   4.772075   5.015357   5.784374   2.547350
                   21
    21  H    0.000000
 Symmetry turned off by external request.
 Stoichiometry    C4H10O6Si(2-)
 Framework group  C1[X(C4H10O6Si)]
 Deg. of freedom    57
 Full point group                 C1      NOp   1
 Rotational constants (GHZ):           1.6249465           0.8475726           0.7809367
 Standard basis: def2TZVPP (5D, 7F)
   492 basis functions,   749 primitive gaussians,   558 cartesian basis functions
    49 alpha electrons       49 beta electrons
       nuclear repulsion energy       872.3527159410 Hartrees.
 NAtoms=   21 NActive=   21 NUniq=   21 SFac= 1.00D+00 NAtFMM=   60 NAOKFM=F Big=F
 Integral buffers will be    131072 words long.
 Raffenetti 2 integral format.
 Two-electron integral symmetry is turned off.
 Nuclear repulsion after empirical dispersion term =      872.3406065375 Hartrees.
 One-electron integrals computed using PRISM.
   1 Symmetry operations used in ECPInt.
 ECPInt:  NShTT=   17020 NPrTT=   47563 LenC2=   16215 LenP2D=   35063.
 LDataN:  DoStor=T MaxTD1= 6 Len=  172
 NBasis=   492 RedAO= T EigKep=  2.57D-04  NBF=   492
 NBsUse=   492 1.00D-06 EigRej= -1.00D+00 NBFU=   492
 Initial guess from the checkpoint file:  "PbiLmL_to_HbiL2_IRCRevere.chk"
 B after Tr=    -0.014688   -0.059361   -0.001363
         Rot=    1.000000   -0.000000    0.000001    0.000060 Ang=  -0.01 deg.
 ExpMin= 7.01D-02 ExpMax= 4.48D+04 ExpMxC= 1.53D+03 IAcc=3 IRadAn=         5 AccDes= 0.00D+00
 Harris functional with IExCor= 4639 and IRadAn=       5 diagonalized for initial guess.
 HarFok:  IExCor= 4639 AccDes= 0.00D+00 IRadAn=         5 IDoV= 1 UseB2=F ITyADJ=14
 ICtDFT=  3500011 ScaDFX=  1.000000  1.000000  1.000000  1.000000
 FoFCou: FMM=F IPFlag=           0 FMFlag=      100000 FMFlg1=           0
         NFxFlg=           0 DoJE=T BraDBF=F KetDBF=T FulRan=T
         wScrn=  0.000000 ICntrl=       500 IOpCl=  0 I1Cent=   200000004 NGrid=           0
         NMat0=    1 NMatS0=      1 NMatT0=    0 NMatD0=    1 NMtDS0=    0 NMtDT0=    0
 Symmetry not used in FoFCou.
 Requested convergence on RMS density matrix=1.00D-08 within 128 cycles.
 Requested convergence on MAX density matrix=1.00D-06.
 Requested convergence on             energy=1.00D-06.
 No special actions if energy rises.
 Integral accuracy reduced to 1.0D-05 until final iterations.
 Initial convergence to 1.0D-05 achieved.  Increase integral accuracy.
 SCF Done:  E(RwB97XD) =  -899.450201174     A.U. after   12 cycles
            NFock= 12  Conv=0.61D-08     -V/T= 2.0035
 DoSCS=F DFT=T ScalE2(SS,OS)=  1.000000  1.000000
 Range of M.O.s used for correlation:     1   492
 NBasis=   492 NAE=    49 NBE=    49 NFC=     0 NFV=     0
 NROrb=    492 NOA=    49 NOB=    49 NVA=   443 NVB=   443

 **** Warning!!: The largest alpha MO coefficient is  0.11720530D+02

 Symmetrizing basis deriv contribution to polar:
 IMax=3 JMax=2 DiffMx= 0.00D+00
   1 Symmetry operations used in ECPInt.
 ECPInt:  NShTT=   17020 NPrTT=   47563 LenC2=   16215 LenP2D=   35063.
 LDataN:  DoStor=T MaxTD1= 7 Len=  274
 Calling FoFJK, ICntrl=      2127 FMM=F ISym2X=0 I1Cent= 0 IOpClX= 0 NMat=1 NMatS=1 NMatT=0.
 -------------------------------------------------------------------
 Center     Atomic                   Forces (Hartrees/Bohr)
 Number     Number              X              Y              Z
 -------------------------------------------------------------------
      1       14          -0.000730063    0.000050927    0.000284598
      2        8          -0.000138950    0.000058794   -0.000023406
      3        8          -0.000310732   -0.000030675    0.000064091
      4        8          -0.000178440   -0.000014207    0.000079330
      5        8           0.000032799   -0.000127531   -0.000365072
      6        8           0.001020431   -0.000304829   -0.000101450
      7        8           0.000065729    0.000269876   -0.000018609
      8        6           0.000226711   -0.000012446   -0.000003698
      9        1           0.000091492    0.000042618    0.000031591
     10        1           0.000003180    0.000021050   -0.000011908
     11        6           0.000020622   -0.000050960   -0.000074295
     12        1          -0.000007142   -0.000007876   -0.000001571
     13        1          -0.000006701   -0.000002468   -0.000000535
     14        6          -0.000154746    0.000030676    0.000105164
     15        1          -0.000009189    0.000000071    0.000013776
     16        1          -0.000014611    0.000002940    0.000011253
     17        6          -0.000170097    0.000029043    0.000095742
     18        1          -0.000011112    0.000001835    0.000009128
     19        1          -0.000017617    0.000004653    0.000011583
     20        1           0.000247640    0.000018367   -0.000079568
     21        1           0.000040795    0.000020141   -0.000026142
 -------------------------------------------------------------------
 Cartesian Forces:  Max     0.001020431 RMS     0.000194015
 IRC-IRC-IRC-IRC-IRC-IRC-IRC-IRC-IRC-IRC-IRC-IRC-IRC-IRC-IRC-IRC-IRC-IRC
 Pt  1 Step number   1 out of a maximum of 100
 Modified Bulirsch-Stoer Extrapolation Cycles:
    EPS =    0.000010000000000
      PEZero:  N= 2 I= 1 D=  7.64D-04 Err=  2.56D-02
      PEZero:  N= 3 I= 2 D=  7.64D-04 Err=  4.03D-02
      PEZero:  N= 3 I= 1 D=  1.53D-03 Err=  3.48D-02
      PEZero:  N= 4 I= 3 D=  3.82D-04 Err=  7.00D-02
      PEZero:  N= 4 I= 2 D=  1.15D-03 Err=  5.30D-02
      PEZero:  N= 4 I= 1 D=  1.91D-03 Err=  4.27D-02
      PEZero:  N= 5 I= 4 D=  3.82D-04 Err=  4.25D-02
      PEZero:  N= 5 I= 3 D=  7.64D-04 Err=  6.16D-03
      PEZero:  N= 5 I= 2 D=  1.53D-03 Err=  3.27D-02
      PEZero:  N= 6 I= 5 D=  1.91D-04 Err=  6.98D-03
      PEZero:  N= 6 I= 4 D=  5.73D-04 Err=  3.32D-02
      PEZero:  N= 7 I= 6 D=  1.91D-04 Err=  3.50D-04
      PEZero:  N= 7 I= 5 D=  3.82D-04 Err=  6.45D-03
      PEZero:  N= 8 I= 7 D=  9.55D-05 Err=  2.10D-04
      PEZero:  N= 8 I= 6 D=  2.87D-04 Err=  6.95D-05
      PEZero:  N= 8 I= 5 D=  4.78D-04 Err=  3.61D-03
      PEZero:  N= 9 I= 8 D=  9.55D-05 Err=  1.37D-04
      PEZero:  N= 9 I= 7 D=  1.91D-04 Err=  5.18D-06
      PEZero:  N= 9 I= 6 D=  3.82D-04 Err=  2.95D-05
 Maximum DWI energy   std dev =  0.000000601 at pt    96
 Maximum DWI gradient std dev =  0.361439283 at pt     8
 CORRECTOR INTEGRATION CONVERGENCE:
   Recorrection delta-x convergence threshold:    0.010000
   Delta-x Convergence Met
 Point Number:   1          Path Number:   1
   CHANGE IN THE REACTION COORDINATE =    0.29324
   NET REACTION COORDINATE UP TO THIS POINT =    0.29324
  # OF POINTS ALONG THE PATH =   1
  # OF STEPS =   1

 Calculating another point on the path.
 IRC-IRC-IRC-IRC-IRC-IRC-IRC-IRC-IRC-IRC-IRC-IRC-IRC-IRC-IRC-IRC-IRC-IRC
                          Input orientation:                          
 ---------------------------------------------------------------------
 Center     Atomic      Atomic             Coordinates (Angstroms)
 Number     Number       Type             X           Y           Z
 ---------------------------------------------------------------------
      1         14           0        0.135965    0.419059   -0.063734
      2          8           0       -0.621795    1.368709   -1.322179
      3          8           0        0.995387   -0.630336    1.196760
      4          8           0        1.658338    0.472237   -0.920860
      5          8           0       -0.532835   -1.098976   -0.681582
      6          8           0       -2.031624    0.438246    0.851273
      7          8           0        0.205130    1.726358    1.068506
      8          6           0       -2.581779   -0.736442    0.474320
      9          1           0       -3.687474   -0.683353    0.273640
     10          1           0       -2.461162   -1.545977    1.240182
     11          6           0       -1.894179   -1.220362   -0.815587
     12          1           0       -2.273277   -0.610875   -1.660263
     13          1           0       -2.160447   -2.276234   -1.022119
     14          6           0        2.679132   -0.267118   -0.362807
     15          1           0        3.272659   -0.778552   -1.145445
     16          1           0        3.378236    0.383596    0.201663
     17          6           0        2.042494   -1.277273    0.606021
     18          1           0        1.721833   -2.172661    0.031580
     19          1           0        2.790682   -1.618833    1.351131
     20          1           0       -0.631535    1.630290    1.528089
     21          1           0       -1.452668    1.603217   -0.906240
 ---------------------------------------------------------------------
                    Distance matrix (angstroms):
                    1          2          3          4          5
     1  Si   0.000000
     2  O    1.749205   0.000000
     3  O    1.851669   3.599515   0.000000
     4  O    1.747888   2.482685   2.477798   0.000000
     5  O    1.770158   2.551029   2.466425   2.706881   0.000000
     6  O    2.352881   2.752685   3.228625   4.093584   2.638004
     7  O    1.730833   2.554817   2.488968   2.764455   3.404396
     8  C    3.001802   3.391255   3.650930   4.624503   2.380275
     9  H    3.993472   4.019452   4.773274   5.598208   3.322189
    10  H    3.508081   4.294691   3.576033   5.070856   2.758883
    11  C    2.715597   2.928974   3.570330   3.936540   1.373299
    12  H    3.068243   2.600086   4.341327   4.144569   2.055529
    13  H    3.668326   3.967758   4.194245   4.706110   2.037406
    14  C    2.651034   3.806894   2.323612   1.378437   3.333217
    15  H    3.527495   4.450700   3.270147   2.054493   3.847028
    16  H    3.253309   4.392356   2.774211   2.055715   4.274882
    17  C    2.638365   4.221091   1.365260   2.353662   2.884793
    18  H    3.039914   4.457192   2.064978   2.811878   2.597100
    19  H    3.633507   5.264693   2.055247   3.288878   3.930386
    20  H    2.142437   2.862263   2.804832   3.547106   3.513016
    21  H    2.153091   0.958305   3.924836   3.310240   2.863287
                    6          7          8          9         10
     6  O    0.000000
     7  O    2.590269   0.000000
     8  C    1.350799   3.766338   0.000000
     9  H    2.081703   4.646600   1.125013   0.000000
    10  H    2.067098   4.224544   1.120911   1.783863   0.000000
    11  C    2.355482   4.079223   1.539751   2.165803   2.157240
    12  H    2.732556   4.364784   2.160413   2.396912   3.053244
    13  H    3.300697   5.097785   2.188106   2.558921   2.396187
    14  C    4.915562   3.484722   5.347731   6.411863   5.534228
    15  H    5.796800   4.537167   6.074525   7.103965   6.257544
    16  H    5.448997   3.552890   6.070470   7.146176   6.237014
    17  C    4.427368   3.551281   4.657654   5.770248   4.556016
    18  H    4.645123   4.310215   4.558488   5.615802   4.398965
    19  H    5.266504   4.237364   5.514593   6.633446   5.253520
    20  H    1.959412   0.959404   3.242731   4.033033   3.676833
    21  H    2.186596   2.581294   2.941912   3.408062   3.942286
                   11         12         13         14         15
    11  C    0.000000
    12  H    1.108452   0.000000
    13  H    1.108342   1.787004   0.000000
    14  C    4.693491   5.131074   5.281360   0.000000
    15  H    5.196173   5.572303   5.637100   1.107412   0.000000
    16  H    5.604091   6.032855   6.264930   1.109414   1.782255
    17  C    4.185881   4.919960   4.616652   1.537643   2.197649
    18  H    3.834072   4.611119   4.024066   2.168654   2.394575
    19  H    5.177004   5.977303   5.529753   2.185672   2.677922
    20  H    3.900424   4.228915   4.909386   4.258657   5.309712
    21  H    2.859327   2.478740   3.945190   4.567849   5.297052
                   16         17         18         19         20
    16  H    0.000000
    17  C    2.169377   0.000000
    18  H    3.050746   1.111092   0.000000
    19  H    2.382482   1.109792   1.786163   0.000000
    20  H    4.403626   4.056423   4.715964   4.722254   0.000000
    21  H    5.104171   4.774967   5.021376   5.786480   2.569232
                   21
    21  H    0.000000
 Symmetry turned off by external request.
 Stoichiometry    C4H10O6Si(2-)
 Framework group  C1[X(C4H10O6Si)]
 Deg. of freedom    57
 Full point group                 C1      NOp   1
 Rotational constants (GHZ):           1.6202992           0.8526285           0.7847823
 Standard basis: def2TZVPP (5D, 7F)
   492 basis functions,   749 primitive gaussians,   558 cartesian basis functions
    49 alpha electrons       49 beta electrons
       nuclear repulsion energy       873.0992418721 Hartrees.
 NAtoms=   21 NActive=   21 NUniq=   21 SFac= 1.00D+00 NAtFMM=   60 NAOKFM=F Big=F
 Integral buffers will be    131072 words long.
 Raffenetti 2 integral format.
 Two-electron integral symmetry is turned off.
 Nuclear repulsion after empirical dispersion term =      873.0871363326 Hartrees.
 One-electron integrals computed using PRISM.
   1 Symmetry operations used in ECPInt.
 ECPInt:  NShTT=   17020 NPrTT=   47563 LenC2=   16216 LenP2D=   35082.
 LDataN:  DoStor=T MaxTD1= 6 Len=  172
 NBasis=   492 RedAO= T EigKep=  2.57D-04  NBF=   492
 NBsUse=   492 1.00D-06 EigRej= -1.00D+00 NBFU=   492
 Initial guess from the checkpoint file:  "PbiLmL_to_HbiL2_IRCRevere.chk"
 B after Tr=     0.000032    0.000310    0.000320
         Rot=    1.000000   -0.000001    0.000021    0.000046 Ang=  -0.01 deg.
 ExpMin= 7.01D-02 ExpMax= 4.48D+04 ExpMxC= 1.53D+03 IAcc=3 IRadAn=         5 AccDes= 0.00D+00
 Harris functional with IExCor= 4639 and IRadAn=       5 diagonalized for initial guess.
 HarFok:  IExCor= 4639 AccDes= 0.00D+00 IRadAn=         5 IDoV= 1 UseB2=F ITyADJ=14
 ICtDFT=  3500011 ScaDFX=  1.000000  1.000000  1.000000  1.000000
 FoFCou: FMM=F IPFlag=           0 FMFlag=      100000 FMFlg1=           0
         NFxFlg=           0 DoJE=T BraDBF=F KetDBF=T FulRan=T
         wScrn=  0.000000 ICntrl=       500 IOpCl=  0 I1Cent=   200000004 NGrid=           0
         NMat0=    1 NMatS0=      1 NMatT0=    0 NMatD0=    1 NMtDS0=    0 NMtDT0=    0
 Symmetry not used in FoFCou.
 Requested convergence on RMS density matrix=1.00D-08 within 128 cycles.
 Requested convergence on MAX density matrix=1.00D-06.
 Requested convergence on             energy=1.00D-06.
 No special actions if energy rises.
 Integral accuracy reduced to 1.0D-05 until final iterations.
 Initial convergence to 1.0D-05 achieved.  Increase integral accuracy.
 SCF Done:  E(RwB97XD) =  -899.450372724     A.U. after   12 cycles
            NFock= 12  Conv=0.70D-08     -V/T= 2.0035
 DoSCS=F DFT=T ScalE2(SS,OS)=  1.000000  1.000000
 Range of M.O.s used for correlation:     1   492
 NBasis=   492 NAE=    49 NBE=    49 NFC=     0 NFV=     0
 NROrb=    492 NOA=    49 NOB=    49 NVA=   443 NVB=   443

 **** Warning!!: The largest alpha MO coefficient is  0.11534872D+02

 Symmetrizing basis deriv contribution to polar:
 IMax=3 JMax=2 DiffMx= 0.00D+00
   1 Symmetry operations used in ECPInt.
 ECPInt:  NShTT=   17020 NPrTT=   47563 LenC2=   16216 LenP2D=   35082.
 LDataN:  DoStor=T MaxTD1= 7 Len=  274
 Calling FoFJK, ICntrl=      2127 FMM=F ISym2X=0 I1Cent= 0 IOpClX= 0 NMat=1 NMatS=1 NMatT=0.
 -------------------------------------------------------------------
 Center     Atomic                   Forces (Hartrees/Bohr)
 Number     Number              X              Y              Z
 -------------------------------------------------------------------
      1       14          -0.001349977    0.000033082    0.000518144
      2        8          -0.000298688    0.000125507   -0.000053560
      3        8          -0.000670430   -0.000079114    0.000151065
      4        8          -0.000424492   -0.000024021    0.000184211
      5        8           0.000040850   -0.000244031   -0.000735802
      6        8           0.002082656   -0.000631334   -0.000156065
      7        8           0.000201295    0.000570309   -0.000070061
      8        6           0.000519639    0.000034871   -0.000016935
      9        1           0.000191248    0.000087586    0.000060593
     10        1           0.000011485    0.000043957   -0.000020173
     11        6           0.000032695   -0.000137631   -0.000177955
     12        1          -0.000016071   -0.000020710   -0.000003527
     13        1          -0.000012835   -0.000007811    0.000000855
     14        6          -0.000352574    0.000075598    0.000215701
     15        1          -0.000020572    0.000004310    0.000023101
     16        1          -0.000030763    0.000009541    0.000020196
     17        6          -0.000367075    0.000066508    0.000202531
     18        1          -0.000019884    0.000005396    0.000015469
     19        1          -0.000032825    0.000010836    0.000019460
     20        1           0.000434153    0.000035323   -0.000121993
     21        1           0.000082164    0.000041828   -0.000055256
 -------------------------------------------------------------------
 Cartesian Forces:  Max     0.002082656 RMS     0.000389931
 IRC-IRC-IRC-IRC-IRC-IRC-IRC-IRC-IRC-IRC-IRC-IRC-IRC-IRC-IRC-IRC-IRC-IRC
 Pt  2 Step number   1 out of a maximum of 100
 Modified Bulirsch-Stoer Extrapolation Cycles:
    EPS =    0.000010000000000
      PEZero:  N= 2 I= 1 D=  1.53D-03 Err=  4.58D-02
      PEZero:  N= 3 I= 2 D=  1.53D-03 Err=  7.99D-02
      PEZero:  N= 3 I= 1 D=  3.06D-03 Err=  7.40D-02
      PEZero:  N= 4 I= 3 D=  7.64D-04 Err=  1.36D-01
      PEZero:  N= 4 I= 2 D=  2.29D-03 Err=  1.01D-01
      PEZero:  N= 4 I= 1 D=  3.82D-03 Err=  7.71D-02
      PEZero:  N= 5 I= 4 D=  7.64D-04 Err=  5.11D-02
      PEZero:  N= 5 I= 3 D=  1.53D-03 Err=  5.91D-02
      PEZero:  N= 6 I= 5 D=  3.82D-04 Err=  3.90D-06
      PEZero:  N= 6 I= 4 D=  1.15D-03 Err=  5.11D-02
 Maximum DWI energy   std dev =  0.000001462 at pt    87
 Maximum DWI gradient std dev =  0.204761133 at pt   145
 CORRECTOR INTEGRATION CONVERGENCE:
   Recorrection delta-x convergence threshold:    0.010000
   Delta-x Convergence Met
 Point Number:   2          Path Number:   1
   CHANGE IN THE REACTION COORDINATE =    0.29329
   NET REACTION COORDINATE UP TO THIS POINT =    0.58654
  # OF POINTS ALONG THE PATH =   2
  # OF STEPS =   1

 Calculating another point on the path.
 IRC-IRC-IRC-IRC-IRC-IRC-IRC-IRC-IRC-IRC-IRC-IRC-IRC-IRC-IRC-IRC-IRC-IRC
                          Input orientation:                          
 ---------------------------------------------------------------------
 Center     Atomic      Atomic             Coordinates (Angstroms)
 Number     Number       Type             X           Y           Z
 ---------------------------------------------------------------------
      1         14           0        0.126786    0.419245   -0.060474
      2          8           0       -0.624414    1.369982   -1.323519
      3          8           0        0.986916   -0.631422    1.198854
      4          8           0        1.652589    0.471946   -0.918344
      5          8           0       -0.532311   -1.102071   -0.690766
      6          8           0       -2.004600    0.431902    0.849605
      7          8           0        0.211732    1.733941    1.065829
      8          6           0       -2.572484   -0.736480    0.474325
      9          1           0       -3.677336   -0.667223    0.280023
     10          1           0       -2.457615   -1.546974    1.239298
     11          6           0       -1.893557   -1.223305   -0.818850
     12          1           0       -2.276595   -0.613900   -1.662130
     13          1           0       -2.162744   -2.278933   -1.023147
     14          6           0        2.673193   -0.265692   -0.359277
     15          1           0        3.268384   -0.777734   -1.140623
     16          1           0        3.371818    0.385507    0.205758
     17          6           0        2.036470   -1.276166    0.609218
     18          1           0        1.717993   -2.172115    0.034504
     19          1           0        2.783929   -1.616451    1.355728
     20          1           0       -0.614108    1.635836    1.543324
     21          1           0       -1.452081    1.615055   -0.908182
 ---------------------------------------------------------------------
                    Distance matrix (angstroms):
                    1          2          3          4          5
     1  Si   0.000000
     2  O    1.750281   0.000000
     3  O    1.851926   3.600606   0.000000
     4  O    1.751226   2.481003   2.478521   0.000000
     5  O    1.773719   2.553410   2.469864   2.702427   0.000000
     6  O    2.317587   2.739959   3.194025   4.062299   2.625538
     7  O    1.733263   2.557458   2.492698   2.757833   3.417922
     8  C    2.984589   3.385912   3.633910   4.609887   2.377688
     9  H    3.970855   4.005232   4.754027   5.580492   3.320046
    10  H    3.497793   4.293866   3.564360   5.062137   2.762224
    11  C    2.711990   2.930964   3.566311   3.931784   1.372623
    12  H    3.067398   2.603871   4.340050   4.143762   2.055331
    13  H    3.667267   3.971305   4.191889   4.704794   2.038085
    14  C    2.653792   3.805181   2.324879   1.377788   3.329366
    15  H    3.531164   4.449720   3.271033   2.054727   3.840944
    16  H    3.256110   4.390643   2.776354   2.055924   4.273040
    17  C    2.640038   4.221122   1.365624   2.353021   2.884252
    18  H    3.042385   4.458424   2.064927   2.811273   2.595165
    19  H    3.634570   5.264404   2.055274   3.288273   3.930671
    20  H    2.145038   2.879162   2.796854   3.542931   3.534683
    21  H    2.154389   0.957914   3.928735   3.308440   2.876807
                    6          7          8          9         10
     6  O    0.000000
     7  O    2.579570   0.000000
     8  C    1.352200   3.768914   0.000000
     9  H    2.080996   4.637664   1.123943   0.000000
    10  H    2.067132   4.233191   1.120392   1.783785   0.000000
    11  C    2.352824   4.090178   1.539559   2.167629   2.158447
    12  H    2.734318   4.375601   2.160328   2.395178   3.053143
    13  H    3.298611   5.109316   2.188486   2.567070   2.396115
    14  C    4.881576   3.476816   5.332323   6.395244   5.524701
    15  H    5.764424   4.529908   6.060157   7.090379   6.248425
    16  H    5.415031   3.541771   6.055221   7.127715   6.227758
    17  C    4.393806   3.549494   4.642404   5.755585   4.546112
    18  H    4.615517   4.311580   4.545623   5.606653   4.390676
    19  H    5.232774   4.233836   5.499307   6.618619   5.243297
    20  H    1.965749   0.958977   3.256667   4.035266   3.690695
    21  H    2.189736   2.584401   2.948957   3.401821   3.952366
                   11         12         13         14         15
    11  C    0.000000
    12  H    1.108700   0.000000
    13  H    1.108400   1.787064   0.000000
    14  C    4.688650   5.130212   5.280166   0.000000
    15  H    5.191118   5.571858   5.636005   1.107674   0.000000
    16  H    5.600202   6.032610   6.264249   1.109685   1.782293
    17  C    4.181780   4.919365   4.615578   1.537679   2.197269
    18  H    3.830372   4.611219   4.023700   2.168391   2.393519
    19  H    5.173222   5.976745   5.528789   2.185877   2.677670
    20  H    3.923205   4.254422   4.930564   4.247593   5.301192
    21  H    2.873877   2.493291   3.959975   4.566880   5.297382
                   16         17         18         19         20
    16  H    0.000000
    17  C    2.169583   0.000000
    18  H    3.050556   1.111058   0.000000
    19  H    2.382411   1.109850   1.786229   0.000000
    20  H    4.386344   4.046958   4.713356   4.707358   0.000000
    21  H    5.101240   4.778248   5.027990   5.788929   2.590851
                   21
    21  H    0.000000
 Symmetry turned off by external request.
 Stoichiometry    C4H10O6Si(2-)
 Framework group  C1[X(C4H10O6Si)]
 Deg. of freedom    57
 Full point group                 C1      NOp   1
 Rotational constants (GHZ):           1.6158525           0.8577209           0.7886894
 Standard basis: def2TZVPP (5D, 7F)
   492 basis functions,   749 primitive gaussians,   558 cartesian basis functions
    49 alpha electrons       49 beta electrons
       nuclear repulsion energy       873.8773889681 Hartrees.
 NAtoms=   21 NActive=   21 NUniq=   21 SFac= 1.00D+00 NAtFMM=   60 NAOKFM=F Big=F
 Integral buffers will be    131072 words long.
 Raffenetti 2 integral format.
 Two-electron integral symmetry is turned off.
 Nuclear repulsion after empirical dispersion term =      873.8652864726 Hartrees.
 One-electron integrals computed using PRISM.
   1 Symmetry operations used in ECPInt.
 ECPInt:  NShTT=   17020 NPrTT=   47563 LenC2=   16219 LenP2D=   35094.
 LDataN:  DoStor=T MaxTD1= 6 Len=  172
 NBasis=   492 RedAO= T EigKep=  2.57D-04  NBF=   492
 NBsUse=   492 1.00D-06 EigRej= -1.00D+00 NBFU=   492
 Initial guess from the checkpoint file:  "PbiLmL_to_HbiL2_IRCRevere.chk"
 B after Tr=     0.000056    0.000327    0.000329
         Rot=    1.000000    0.000005   -0.000002    0.000057 Ang=   0.01 deg.
 ExpMin= 7.01D-02 ExpMax= 4.48D+04 ExpMxC= 1.53D+03 IAcc=3 IRadAn=         5 AccDes= 0.00D+00
 Harris functional with IExCor= 4639 and IRadAn=       5 diagonalized for initial guess.
 HarFok:  IExCor= 4639 AccDes= 0.00D+00 IRadAn=         5 IDoV= 1 UseB2=F ITyADJ=14
 ICtDFT=  3500011 ScaDFX=  1.000000  1.000000  1.000000  1.000000
 FoFCou: FMM=F IPFlag=           0 FMFlag=      100000 FMFlg1=           0
         NFxFlg=           0 DoJE=T BraDBF=F KetDBF=T FulRan=T
         wScrn=  0.000000 ICntrl=       500 IOpCl=  0 I1Cent=   200000004 NGrid=           0
         NMat0=    1 NMatS0=      1 NMatT0=    0 NMatD0=    1 NMtDS0=    0 NMtDT0=    0
 Symmetry not used in FoFCou.
 Requested convergence on RMS density matrix=1.00D-08 within 128 cycles.
 Requested convergence on MAX density matrix=1.00D-06.
 Requested convergence on             energy=1.00D-06.
 No special actions if energy rises.
 Integral accuracy reduced to 1.0D-05 until final iterations.
 Initial convergence to 1.0D-05 achieved.  Increase integral accuracy.
 SCF Done:  E(RwB97XD) =  -899.450654955     A.U. after   12 cycles
            NFock= 12  Conv=0.67D-08     -V/T= 2.0035
 DoSCS=F DFT=T ScalE2(SS,OS)=  1.000000  1.000000
 Range of M.O.s used for correlation:     1   492
 NBasis=   492 NAE=    49 NBE=    49 NFC=     0 NFV=     0
 NROrb=    492 NOA=    49 NOB=    49 NVA=   443 NVB=   443

 **** Warning!!: The largest alpha MO coefficient is  0.11995424D+02

 Symmetrizing basis deriv contribution to polar:
 IMax=3 JMax=2 DiffMx= 0.00D+00
   1 Symmetry operations used in ECPInt.
 ECPInt:  NShTT=   17020 NPrTT=   47563 LenC2=   16219 LenP2D=   35094.
 LDataN:  DoStor=T MaxTD1= 7 Len=  274
 Calling FoFJK, ICntrl=      2127 FMM=F ISym2X=0 I1Cent= 0 IOpClX= 0 NMat=1 NMatS=1 NMatT=0.
 -------------------------------------------------------------------
 Center     Atomic                   Forces (Hartrees/Bohr)
 Number     Number              X              Y              Z
 -------------------------------------------------------------------
      1       14          -0.001829390    0.000082402    0.000716411
      2        8          -0.000436856    0.000184803   -0.000115282
      3        8          -0.001011446   -0.000138990    0.000237298
      4        8          -0.000677023   -0.000039354    0.000287217
      5        8           0.000039583   -0.000384324   -0.001121356
      6        8           0.003043303   -0.000904455   -0.000166790
      7        8           0.000409270    0.000848628   -0.000179714
      8        6           0.000825413    0.000053908   -0.000006959
      9        1           0.000212659    0.000132401    0.000075070
     10        1           0.000022106    0.000039711   -0.000018786
     11        6           0.000062321   -0.000238747   -0.000289328
     12        1          -0.000024433   -0.000029499   -0.000006215
     13        1          -0.000019818   -0.000012097    0.000001544
     14        6          -0.000544767    0.000124972    0.000319655
     15        1          -0.000031468    0.000006009    0.000035693
     16        1          -0.000047196    0.000014340    0.000030631
     17        6          -0.000552579    0.000103646    0.000302047
     18        1          -0.000029145    0.000005868    0.000023412
     19        1          -0.000048693    0.000016076    0.000031666
     20        1           0.000521064    0.000064008   -0.000081966
     21        1           0.000117095    0.000070696   -0.000074248
 -------------------------------------------------------------------
 Cartesian Forces:  Max     0.003043303 RMS     0.000566543
 IRC-IRC-IRC-IRC-IRC-IRC-IRC-IRC-IRC-IRC-IRC-IRC-IRC-IRC-IRC-IRC-IRC-IRC
 Pt  3 Step number   1 out of a maximum of 100
 Modified Bulirsch-Stoer Extrapolation Cycles:
    EPS =    0.000010000000000
      PEZero:  N= 2 I= 1 D=  1.53D-03 Err=  1.01D-01
      PEZero:  N= 3 I= 2 D=  1.53D-03 Err=  8.31D-02
      PEZero:  N= 3 I= 1 D=  3.06D-03 Err=  2.40D-02
      PEZero:  N= 4 I= 3 D=  7.64D-04 Err=  7.00D-06
      PEZero:  N= 4 I= 2 D=  2.29D-03 Err=  8.31D-02
 Maximum DWI energy   std dev =  0.000001168 at pt    48
 Maximum DWI gradient std dev =  0.136033163 at pt    74
 CORRECTOR INTEGRATION CONVERGENCE:
   Recorrection delta-x convergence threshold:    0.010000
   Delta-x Convergence Met
 Point Number:   3          Path Number:   1
   CHANGE IN THE REACTION COORDINATE =    0.29332
   NET REACTION COORDINATE UP TO THIS POINT =    0.87986
  # OF POINTS ALONG THE PATH =   3
  # OF STEPS =   1

 Calculating another point on the path.
 IRC-IRC-IRC-IRC-IRC-IRC-IRC-IRC-IRC-IRC-IRC-IRC-IRC-IRC-IRC-IRC-IRC-IRC
                          Input orientation:                          
 ---------------------------------------------------------------------
 Center     Atomic      Atomic             Coordinates (Angstroms)
 Number     Number       Type             X           Y           Z
 ---------------------------------------------------------------------
      1         14           0        0.117822    0.419497   -0.057336
      2          8           0       -0.627048    1.371285   -1.324986
      3          8           0        0.978214   -0.632549    1.200967
      4          8           0        1.646821    0.471608   -0.915872
      5          8           0       -0.531693   -1.105114   -0.700314
      6          8           0       -1.978001    0.425361    0.848554
      7          8           0        0.218332    1.741579    1.062810
      8          6           0       -2.562887   -0.736588    0.474470
      9          1           0       -3.666679   -0.651355    0.286598
     10          1           0       -2.453608   -1.548132    1.238398
     11          6           0       -1.892849   -1.226128   -0.822131
     12          1           0       -2.280038   -0.616820   -1.663910
     13          1           0       -2.165129   -2.281496   -1.024023
     14          6           0        2.667141   -0.264300   -0.355616
     15          1           0        3.264073   -0.776982   -1.135578
     16          1           0        3.365209    0.387428    0.210019
     17          6           0        2.030277   -1.275061    0.612555
     18          1           0        1.714042   -2.171601    0.037595
     19          1           0        2.776997   -1.614020    1.360499
     20          1           0       -0.595402    1.640483    1.559501
     21          1           0       -1.450835    1.628194   -0.909972
 ---------------------------------------------------------------------
                    Distance matrix (angstroms):
                    1          2          3          4          5
     1  Si   0.000000
     2  O    1.751477   0.000000
     3  O    1.852134   3.601757   0.000000
     4  O    1.754320   2.479370   2.479356   0.000000
     5  O    1.777564   2.555751   2.473461   2.697860   0.000000
     6  O    2.283232   2.728391   3.159522   4.031709   2.614030
     7  O    1.735721   2.559952   2.496595   2.751107   3.431444
     8  C    2.967415   3.380627   3.616355   4.595044   2.375221
     9  H    3.948096   3.990943   4.734074   5.562397   3.317835
    10  H    3.487513   4.293047   3.552055   5.053093   2.765615
    11  C    2.708467   2.932860   3.562059   3.926877   1.371943
    12  H    3.066719   2.607643   4.338660   4.143001   2.055154
    13  H    3.666295   3.974806   4.189298   4.703429   2.038817
    14  C    2.656233   3.803485   2.326162   1.377135   3.325406
    15  H    3.534553   4.448792   3.271919   2.054933   3.834706
    16  H    3.258532   4.388888   2.778502   2.056106   4.271093
    17  C    2.641546   4.221207   1.365975   2.352442   2.883782
    18  H    3.044785   4.459750   2.064838   2.810725   2.593305
    19  H    3.635472   5.264162   2.055323   3.287705   3.931077
    20  H    2.147942   2.897194   2.787739   3.538546   3.556561
    21  H    2.156066   0.957530   3.932849   3.306539   2.891323
                    6          7          8          9         10
     6  O    0.000000
     7  O    2.569477   0.000000
     8  C    1.353572   3.771290   0.000000
     9  H    2.080082   4.628384   1.122905   0.000000
    10  H    2.067089   4.241732   1.119880   1.783724   0.000000
    11  C    2.350713   4.100898   1.539407   2.169358   2.159610
    12  H    2.736757   4.386216   2.160328   2.393417   3.053008
    13  H    3.296762   5.120634   2.188706   2.574828   2.395745
    14  C    4.847990   3.468739   5.316511   6.378050   5.514633
    15  H    5.732517   4.522455   6.045440   7.076276   6.238775
    16  H    5.381363   3.530413   6.039509   7.108613   6.217925
    17  C    4.360439   3.547674   4.626681   5.740258   4.535579
    18  H    4.586180   4.312909   4.532355   5.596902   4.381775
    19  H    5.199151   4.230298   5.483548   6.603101   5.232445
    20  H    1.973207   0.958689   3.270895   4.038012   3.704497
    21  H    2.194794   2.586667   2.957284   3.396775   3.963595
                   11         12         13         14         15
    11  C    0.000000
    12  H    1.108947   0.000000
    13  H    1.108467   1.787122   0.000000
    14  C    4.683615   5.129374   5.278890   0.000000
    15  H    5.185926   5.571530   5.634913   1.107931   0.000000
    16  H    5.596076   6.032324   6.263438   1.109951   1.782332
    17  C    4.177515   4.918779   4.614405   1.537722   2.196885
    18  H    3.826580   4.611414   4.023317   2.168134   2.392466
    19  H    5.169312   5.976207   5.527756   2.186061   2.677364
    20  H    3.946263   4.280629   4.951824   4.235571   5.291799
    21  H    2.889678   2.509200   3.976040   4.565804   5.297748
                   16         17         18         19         20
    16  H    0.000000
    17  C    2.169781   0.000000
    18  H    3.050362   1.111020   0.000000
    19  H    2.382308   1.109912   1.786293   0.000000
    20  H    4.367802   4.036247   4.709746   4.690891   0.000000
    21  H    5.097859   4.781749   5.035153   5.791507   2.613468
                   21
    21  H    0.000000
 Symmetry turned off by external request.
 Stoichiometry    C4H10O6Si(2-)
 Framework group  C1[X(C4H10O6Si)]
 Deg. of freedom    57
 Full point group                 C1      NOp   1
 Rotational constants (GHZ):           1.6112884           0.8628143           0.7926095
 Standard basis: def2TZVPP (5D, 7F)
   492 basis functions,   749 primitive gaussians,   558 cartesian basis functions
    49 alpha electrons       49 beta electrons
       nuclear repulsion energy       874.6481673921 Hartrees.
 NAtoms=   21 NActive=   21 NUniq=   21 SFac= 1.00D+00 NAtFMM=   60 NAOKFM=F Big=F
 Integral buffers will be    131072 words long.
 Raffenetti 2 integral format.
 Two-electron integral symmetry is turned off.
 Nuclear repulsion after empirical dispersion term =      874.6360674248 Hartrees.
 One-electron integrals computed using PRISM.
   1 Symmetry operations used in ECPInt.
 ECPInt:  NShTT=   17020 NPrTT=   47563 LenC2=   16222 LenP2D=   35105.
 LDataN:  DoStor=T MaxTD1= 6 Len=  172
 NBasis=   492 RedAO= T EigKep=  2.56D-04  NBF=   492
 NBsUse=   492 1.00D-06 EigRej= -1.00D+00 NBFU=   492
 Initial guess from the checkpoint file:  "PbiLmL_to_HbiL2_IRCRevere.chk"
 B after Tr=     0.000077    0.000327    0.000348
         Rot=    1.000000   -0.000002   -0.000007    0.000060 Ang=  -0.01 deg.
[...]
    19  H    3.640445   5.263320   2.055563   3.285070   3.935504
    20  H    2.161865   2.990489   2.735063   3.510248   3.663941
    21  H    2.168260   0.955721   3.957472   3.294101   2.978107
                    6          7          8          9         10
     6  O    0.000000
     7  O    2.520022   0.000000
     8  C    1.361212   3.777779   0.000000
     9  H    2.074538   4.574087   1.117987   0.000000
    10  H    2.066658   4.275592   1.117096   1.783573   0.000000
    11  C    2.343344   4.151242   1.538638   2.178450   2.164779
    12  H    2.752630   4.437719   2.160752   2.386791   3.051867
    13  H    3.289220   5.173461   2.189254   2.613009   2.393264
    14  C    4.681331   3.429084   5.235086   6.287299   5.459455
    15  H    5.574623   4.485844   5.970336   7.002144   6.186855
    16  H    5.213592   3.473807   5.957716   7.007053   6.162752
    17  C    4.196246   3.539221   4.546891   5.659654   4.479047
    18  H    4.442067   4.319222   4.465144   5.544851   4.334290
    19  H    5.034071   4.213452   5.403836   6.521261   5.174559
    20  H    2.021370   0.953590   3.345258   4.055895   3.771514
    21  H    2.236379   2.585513   3.016243   3.388944   4.033265
                   11         12         13         14         15
    11  C    0.000000
    12  H    1.110065   0.000000
    13  H    1.108939   1.787331   0.000000
    14  C    4.658612   5.126186   5.272752   0.000000
    15  H    5.161070   5.571840   5.631070   1.109230   0.000000
    16  H    5.575008   6.031346   6.258996   1.111388   1.782719
    17  C    4.157309   4.917415   4.609015   1.537846   2.194822
    18  H    3.808888   4.613942   4.022276   2.166990   2.387687
    19  H    5.151009   5.975079   5.523069   2.187135   2.675560
    20  H    4.063136   4.416446   5.058244   4.164084   5.233616
    21  H    2.988981   2.612046   4.077304   4.557954   5.299049
                   16         17         18         19         20
    16  H    0.000000
    17  C    2.170336   0.000000
    18  H    3.049427   1.110830   0.000000
    19  H    2.381692   1.110236   1.786666   0.000000
    20  H    4.260484   3.972107   4.682518   4.595839   0.000000
    21  H    5.073225   4.802710   5.078702   5.806369   2.726817
                   21
    21  H    0.000000
 Symmetry turned off by external request.
 Stoichiometry    C4H10O6Si(2-)
 Framework group  C1[X(C4H10O6Si)]
 Deg. of freedom    57
 Full point group                 C1      NOp   1
 Rotational constants (GHZ):           1.5900518           0.8884339           0.8122022
 Standard basis: def2TZVPP (5D, 7F)
   492 basis functions,   749 primitive gaussians,   558 cartesian basis functions
    49 alpha electrons       49 beta electrons
       nuclear repulsion energy       878.7171516523 Hartrees.
 NAtoms=   21 NActive=   21 NUniq=   21 SFac= 1.00D+00 NAtFMM=   60 NAOKFM=F Big=F
 Integral buffers will be    131072 words long.
 Raffenetti 2 integral format.
 Two-electron integral symmetry is turned off.
 Nuclear repulsion after empirical dispersion term =      878.7050682321 Hartrees.
 One-electron integrals computed using PRISM.
   1 Symmetry operations used in ECPInt.
 ECPInt:  NShTT=   17020 NPrTT=   47563 LenC2=   16256 LenP2D=   35195.
 LDataN:  DoStor=T MaxTD1= 6 Len=  172
 NBasis=   492 RedAO= T EigKep=  2.52D-04  NBF=   492
 NBsUse=   492 1.00D-06 EigRej= -1.00D+00 NBFU=   492
 Initial guess from the checkpoint file:  "PbiLmL_to_HbiL2_IRCRevere.chk"
 B after Tr=    -0.000038    0.000108   -0.000075
         Rot=    1.000000    0.000045    0.000026    0.000010 Ang=   0.01 deg.
 ExpMin= 7.01D-02 ExpMax= 4.48D+04 ExpMxC= 1.53D+03 IAcc=3 IRadAn=         5 AccDes= 0.00D+00
 Harris functional with IExCor= 4639 and IRadAn=       5 diagonalized for initial guess.
 HarFok:  IExCor= 4639 AccDes= 0.00D+00 IRadAn=         5 IDoV= 1 UseB2=F ITyADJ=14
 ICtDFT=  3500011 ScaDFX=  1.000000  1.000000  1.000000  1.000000
 FoFCou: FMM=F IPFlag=           0 FMFlag=      100000 FMFlg1=           0
         NFxFlg=           0 DoJE=T BraDBF=F KetDBF=T FulRan=T
         wScrn=  0.000000 ICntrl=       500 IOpCl=  0 I1Cent=   200000004 NGrid=           0
         NMat0=    1 NMatS0=      1 NMatT0=    0 NMatD0=    1 NMtDS0=    0 NMtDT0=    0
 Symmetry not used in FoFCou.
 Requested convergence on RMS density matrix=1.00D-08 within 128 cycles.
 Requested convergence on MAX density matrix=1.00D-06.
 Requested convergence on             energy=1.00D-06.
 No special actions if energy rises.
 Integral accuracy reduced to 1.0D-05 until final iterations.
 Initial convergence to 1.0D-05 achieved.  Increase integral accuracy.
 SCF Done:  E(RwB97XD) =  -899.454520791     A.U. after   10 cycles
            NFock= 10  Conv=0.54D-08     -V/T= 2.0036
 DoSCS=F DFT=T ScalE2(SS,OS)=  1.000000  1.000000
 Range of M.O.s used for correlation:     1   492
 NBasis=   492 NAE=    49 NBE=    49 NFC=     0 NFV=     0
 NROrb=    492 NOA=    49 NOB=    49 NVA=   443 NVB=   443

 **** Warning!!: The largest alpha MO coefficient is  0.13201293D+02

 Symmetrizing basis deriv contribution to polar:
 IMax=3 JMax=2 DiffMx= 0.00D+00
   1 Symmetry operations used in ECPInt.
 ECPInt:  NShTT=   17020 NPrTT=   47563 LenC2=   16256 LenP2D=   35195.
 LDataN:  DoStor=T MaxTD1= 7 Len=  274
 Calling FoFJK, ICntrl=      2127 FMM=F ISym2X=0 I1Cent= 0 IOpClX= 0 NMat=1 NMatS=1 NMatT=0.
 -------------------------------------------------------------------
 Center     Atomic                   Forces (Hartrees/Bohr)
 Number     Number              X              Y              Z
 -------------------------------------------------------------------
      1       14          -0.004851602    0.000058910    0.001808339
      2        8          -0.001078982    0.000476496   -0.000371049
      3        8          -0.002717248   -0.000388456    0.000645858
      4        8          -0.001844095   -0.000219136    0.000717099
      5        8           0.000146405   -0.000855634   -0.003107022
      6        8           0.008113252   -0.002047974   -0.000386405
      7        8           0.003805366    0.002533276   -0.003110823
      8        6           0.002457354    0.000158296    0.000070827
      9        1           0.000322414    0.000221022    0.000136820
     10        1           0.000096498    0.000035419   -0.000014775
     11        6           0.000161976   -0.000567896   -0.000741584
     12        1          -0.000059561   -0.000054481   -0.000015611
     13        1          -0.000041872   -0.000027925    0.000015624
     14        6          -0.001442569    0.000351605    0.000943775
     15        1          -0.000057011    0.000017767    0.000089761
     16        1          -0.000114612    0.000037003    0.000073616
     17        6          -0.001438707    0.000279661    0.000886832
     18        1          -0.000053327    0.000003348    0.000055500
     19        1          -0.000102731    0.000042498    0.000078211
     20        1          -0.001645758   -0.000318835    0.002319977
     21        1           0.000344810    0.000265035   -0.000094969
 -------------------------------------------------------------------
 Cartesian Forces:  Max     0.008113252 RMS     0.001657315
 IRC-IRC-IRC-IRC-IRC-IRC-IRC-IRC-IRC-IRC-IRC-IRC-IRC-IRC-IRC-IRC-IRC-IRC
 Error in corrector energy =          -0.0000213118
 Magnitude of corrector gradient =     0.0122591078
 Magnitude of analytic gradient =      0.0131545289
 Magnitude of difference =             0.0041944949
 Angle between gradients (degrees)=   18.5699
 Pt  9 Step number  99 out of a maximum of 100
 Modified Bulirsch-Stoer Extrapolation Cycles:
    EPS =    0.000010000000000
      PEZero:  N= 2 I= 1 D=  1.53D-03 Err=  2.33D-04
      PEZero:  N= 3 I= 2 D=  1.53D-03 Err=  1.55D-04
      PEZero:  N= 3 I= 1 D=  3.06D-03 Err=  5.60D-07
 Maximum DWI energy   std dev =  0.000002735 at pt    23
 Maximum DWI gradient std dev =  0.219484507 at pt    57
 CORRECTOR INTEGRATION CONVERGENCE:
   Recorrection delta-x convergence threshold:    0.010000
   Delta-x Convergence NOT Met
 IRC-IRC-IRC-IRC-IRC-IRC-IRC-IRC-IRC-IRC-IRC-IRC-IRC-IRC-IRC-IRC-IRC-IRC
                          Input orientation:                          
 ---------------------------------------------------------------------
 Center     Atomic      Atomic             Coordinates (Angstroms)
 Number     Number       Type             X           Y           Z
 ---------------------------------------------------------------------
      1         14           0        0.072169    0.420069   -0.040803
      2          8           0       -0.640132    1.377436   -1.332165
      3          8           0        0.935684   -0.638401    1.211439
      4          8           0        1.617947    0.469112   -0.904049
      5          8           0       -0.528865   -1.119619   -0.747800
      6          8           0       -1.847092    0.393672    0.841668
      7          8           0        0.248785    1.778138    1.046218
      8          6           0       -2.512691   -0.735548    0.475140
      9          1           0       -3.607673   -0.572527    0.321619
     10          1           0       -2.428901   -1.549704    1.235344
     11          6           0       -1.889175   -1.239593   -0.838046
     12          1           0       -2.297867   -0.632056   -1.672322
     13          1           0       -2.177447   -2.293857   -1.025386
     14          6           0        2.637083   -0.257004   -0.337308
     15          1           0        3.243571   -0.772681   -1.109786
     16          1           0        3.331636    0.398104    0.231564
     17          6           0        2.000414   -1.269313    0.629582
     18          1           0        1.695438   -2.169014    0.053839
     19          1           0        2.743733   -1.601271    1.384518
     20          1           0       -0.482861    1.651031    1.653165
     21          1           0       -1.431879    1.712200   -0.915438
 ---------------------------------------------------------------------
                    Distance matrix (angstroms):
                    1          2          3          4          5
     1  Si   0.000000
     2  O    1.758277   0.000000
     3  O    1.853140   3.607868   0.000000
     4  O    1.771166   2.471286   2.483417   0.000000
     5  O    1.797700   2.566933   2.493009   2.675310   0.000000
     6  O    2.112584   2.673965   2.990944   3.880684   2.560113
     7  O    1.748473   2.570494   2.517696   2.718767   3.495745
     8  C    2.878046   3.352242   3.527445   4.518356   2.361918
     9  H    3.828554   3.917097   4.630141   5.467574   3.304848
    10  H    3.429855   4.284850   3.485897   5.002959   2.779922
    11  C    2.690157   2.941616   3.541419   3.901786   1.368569
    12  H    3.063640   2.627137   4.332663   4.139615   2.054708
    13  H    3.659996   3.991973   4.175584   4.696141   2.042966
    14  C    2.669293   3.794900   2.332131   1.373710   3.306937
    15  H    3.552910   4.444727   3.276044   2.055975   3.805611
    16  H    3.270902   4.379416   2.788384   2.057035   4.262172
    17  C    2.649822   4.222110   1.367573   2.349559   2.883893
    18  H    3.057337   4.466900   2.063986   2.807715   2.586770
    19  H    3.640689   5.263421   2.055752   3.285030   3.935564
    20  H    2.166300   3.001963   2.729266   3.514210   3.666504
    21  H    2.167198   0.955297   3.956551   3.293453   2.977036
                    6          7          8          9         10
     6  O    0.000000
     7  O    2.520175   0.000000
     8  C    1.361067   3.777631   0.000000
     9  H    2.074521   4.574159   1.117644   0.000000
    10  H    2.066445   4.275547   1.117041   1.783051   0.000000
    11  C    2.343238   4.150665   1.538600   2.177850   2.164814
    12  H    2.752355   4.436770   2.160660   2.386406   3.051846
    13  H    3.289048   5.172938   2.189131   2.612076   2.393301
    14  C    4.682006   3.429273   5.235384   6.287345   5.459716
    15  H    5.575249   4.485953   5.970588   7.002037   6.187111
    16  H    5.214544   3.474497   5.958243   7.007442   6.163223
    17  C    4.196880   3.539597   4.547183   5.659593   4.479330
    18  H    4.442696   4.319448   4.465497   5.544678   4.334705
    19  H    5.034894   4.214216   5.404299   6.521382   5.175042
    20  H    2.024995   0.959086   3.347195   4.059763   3.769132
    21  H    2.235697   2.584003   3.015516   3.388859   4.032361
                   11         12         13         14         15
    11  C    0.000000
    12  H    1.110020   0.000000
    13  H    1.108905   1.787347   0.000000
    14  C    4.658673   5.126076   5.272752   0.000000
    15  H    5.161098   5.571692   5.631034   1.109267   0.000000
    16  H    5.575212   6.031361   6.259119   1.111389   1.782614
    17  C    4.157369   4.917324   4.609027   1.537853   2.194877
    18  H    3.809033   4.613930   4.022381   2.166904   2.387570
    19  H    5.151160   5.975063   5.523163   2.187033   2.675435
    20  H    4.066886   4.423301   5.060474   4.163727   5.233983
    21  H    2.988008   2.611197   4.076329   4.557241   5.298324
                   16         17         18         19         20
    16  H    0.000000
    17  C    2.170449   0.000000
    18  H    3.049397   1.110834   0.000000
    19  H    2.381687   1.110247   1.786606   0.000000
    20  H    4.259245   3.967718   4.679270   4.589178   0.000000
    21  H    5.072824   4.801786   5.077739   5.805569   2.738996
                   21
    21  H    0.000000
 Symmetry turned off by external request.
 Stoichiometry    C4H10O6Si(2-)
 Framework group  C1[X(C4H10O6Si)]
 Deg. of freedom    57
 Full point group                 C1      NOp   1
 Rotational constants (GHZ):           1.5901059           0.8883333           0.8121449
 Standard basis: def2TZVPP (5D, 7F)
   492 basis functions,   749 primitive gaussians,   558 cartesian basis functions
    49 alpha electrons       49 beta electrons
       nuclear repulsion energy       878.6783379319 Hartrees.
 NAtoms=   21 NActive=   21 NUniq=   21 SFac= 1.00D+00 NAtFMM=   60 NAOKFM=F Big=F
 Integral buffers will be    131072 words long.
 Raffenetti 2 integral format.
 Two-electron integral symmetry is turned off.
 Nuclear repulsion after empirical dispersion term =      878.6662580725 Hartrees.
 One-electron integrals computed using PRISM.
   1 Symmetry operations used in ECPInt.
 ECPInt:  NShTT=   17020 NPrTT=   47563 LenC2=   16255 LenP2D=   35192.
 LDataN:  DoStor=T MaxTD1= 6 Len=  172
 NBasis=   492 RedAO= T EigKep=  2.52D-04  NBF=   492
 NBsUse=   492 1.00D-06 EigRej= -1.00D+00 NBFU=   492
 Initial guess from the checkpoint file:  "PbiLmL_to_HbiL2_IRCRevere.chk"
 B after Tr=     0.000038   -0.000108    0.000075
         Rot=    1.000000   -0.000045   -0.000026   -0.000010 Ang=  -0.01 deg.
 ExpMin= 7.01D-02 ExpMax= 4.48D+04 ExpMxC= 1.53D+03 IAcc=3 IRadAn=         5 AccDes= 0.00D+00
 Harris functional with IExCor= 4639 and IRadAn=       5 diagonalized for initial guess.
 HarFok:  IExCor= 4639 AccDes= 0.00D+00 IRadAn=         5 IDoV= 1 UseB2=F ITyADJ=14
 ICtDFT=  3500011 ScaDFX=  1.000000  1.000000  1.000000  1.000000
 FoFCou: FMM=F IPFlag=           0 FMFlag=      100000 FMFlg1=           0
         NFxFlg=           0 DoJE=T BraDBF=F KetDBF=T FulRan=T
         wScrn=  0.000000 ICntrl=       500 IOpCl=  0 I1Cent=   200000004 NGrid=           0
         NMat0=    1 NMatS0=      1 NMatT0=    0 NMatD0=    1 NMtDS0=    0 NMtDT0=    0
 Symmetry not used in FoFCou.
 Requested convergence on RMS density matrix=1.00D-08 within 128 cycles.
 Requested convergence on MAX density matrix=1.00D-06.
 Requested convergence on             energy=1.00D-06.
 No special actions if energy rises.
 Integral accuracy reduced to 1.0D-05 until final iterations.
 Initial convergence to 1.0D-05 achieved.  Increase integral accuracy.
 SCF Done:  E(RwB97XD) =  -899.454521759     A.U. after   10 cycles
            NFock= 10  Conv=0.49D-08     -V/T= 2.0036
 DoSCS=F DFT=T ScalE2(SS,OS)=  1.000000  1.000000
 Range of M.O.s used for correlation:     1   492
 NBasis=   492 NAE=    49 NBE=    49 NFC=     0 NFV=     0
 NROrb=    492 NOA=    49 NOB=    49 NVA=   443 NVB=   443

 **** Warning!!: The largest alpha MO coefficient is  0.13253795D+02

 Symmetrizing basis deriv contribution to polar:
 IMax=3 JMax=2 DiffMx= 0.00D+00
   1 Symmetry operations used in ECPInt.
 ECPInt:  NShTT=   17020 NPrTT=   47563 LenC2=   16255 LenP2D=   35192.
 LDataN:  DoStor=T MaxTD1= 7 Len=  274
 Calling FoFJK, ICntrl=      2127 FMM=F ISym2X=0 I1Cent= 0 IOpClX= 0 NMat=1 NMatS=1 NMatT=0.
 -------------------------------------------------------------------
 Center     Atomic                   Forces (Hartrees/Bohr)
 Number     Number              X              Y              Z
 -------------------------------------------------------------------
      1       14          -0.005022616    0.000052645    0.001750968
      2        8          -0.000676557    0.000293623   -0.000530651
      3        8          -0.002728844   -0.000377932    0.000703964
      4        8          -0.001822865   -0.000227734    0.000704521
      5        8           0.000194553   -0.000849177   -0.003094919
      6        8           0.008121504   -0.002009278   -0.000345100
      7        8          -0.000317635    0.002036801    0.000671656
      8        6           0.002568768    0.000030286    0.000068048
      9        1           0.000123579    0.000307340    0.000124560
     10        1           0.000113110   -0.000031819    0.000000967
     11        6           0.000169143   -0.000594585   -0.000719420
     12        1          -0.000074602   -0.000049228   -0.000033376
     13        1          -0.000048332   -0.000048233   -0.000002501
     14        6          -0.001445727    0.000358815    0.000911599
     15        1          -0.000074389    0.000015220    0.000103064
     16        1          -0.000131188    0.000046262    0.000088719
     17        6          -0.001401202    0.000282274    0.000854876
     18        1          -0.000072004    0.000012716    0.000069320
     19        1          -0.000125618    0.000051268    0.000098401
     20        1           0.002698993    0.000223118   -0.001520029
     21        1          -0.000048073    0.000477618    0.000095329
 -------------------------------------------------------------------
 Cartesian Forces:  Max     0.008121504 RMS     0.001541370
 IRC-IRC-IRC-IRC-IRC-IRC-IRC-IRC-IRC-IRC-IRC-IRC-IRC-IRC-IRC-IRC-IRC-IRC
 Error in corrector energy =          -0.0000222286
 Magnitude of corrector gradient =     0.0121655558
 Magnitude of analytic gradient =      0.0122342414
 Magnitude of difference =             0.0043646073
 Angle between gradients (degrees)=   20.6064
 Pt  9 Step number 100 out of a maximum of 100
 Modified Bulirsch-Stoer Extrapolation Cycles:
    EPS =    0.000010000000000
      PEZero:  N= 2 I= 1 D=  1.53D-03 Err=  6.51D-05
      PEZero:  N= 3 I= 2 D=  1.53D-03 Err=  4.33D-05
      PEZero:  N= 3 I= 1 D=  3.06D-03 Err=  2.08D-07
 Maximum DWI energy   std dev =  0.000001304 at pt    33
 Maximum DWI gradient std dev =  0.094940627 at pt    38
 CORRECTOR INTEGRATION CONVERGENCE:
   Recorrection delta-x convergence threshold:    0.010000
   Delta-x Convergence NOT Met
 Maximum number of corrector steps exceded.
 Error termination via Lnk1e in /opt/software/gaussian/g16.c01/l123.exe at Fri Mar 22 02:34:16 2024.
 Job cpu time:       3 days 19 hours 33 minutes 42.2 seconds.
 Elapsed time:       0 days 22 hours 54 minutes 20.5 seconds.
 File lengths (MBytes):  RWF=    405 Int=      0 D2E=      0 Chk=     20 Scr=      1
