 Entering Gaussian System, Link 0=/opt/software/gaussian/g16.c01/g16
 Initial command:
 /opt/software/gaussian/g16.c01/l1.exe "/scratch/arhender/17065225/Gau-10919.inp" -scrdir="/scratch/arhender/17065225/"
 Entering Link 1 = /opt/software/gaussian/g16.c01/l1.exe PID=     10920.
  
 Copyright (c) 1988-2019, Gaussian, Inc.  All Rights Reserved.
  
 This is part of the Gaussian(R) 16 program.  It is based on
 the Gaussian(R) 09 system (copyright 2009, Gaussian, Inc.),
 the Gaussian(R) 03 system (copyright 2003, Gaussian, Inc.),
 the Gaussian(R) 98 system (copyright 1998, Gaussian, Inc.),
 the Gaussian(R) 94 system (copyright 1995, Gaussian, Inc.),
 the Gaussian 92(TM) system (copyright 1992, Gaussian, Inc.),
 the Gaussian 90(TM) system (copyright 1990, Gaussian, Inc.),
 the Gaussian 88(TM) system (copyright 1988, Gaussian, Inc.),
 the Gaussian 86(TM) system (copyright 1986, Carnegie Mellon
 University), and the Gaussian 82(TM) system (copyright 1983,
 Carnegie Mellon University). Gaussian is a federally registered
 trademark of Gaussian, Inc.
  
 This software contains proprietary and confidential information,
 including trade secrets, belonging to Gaussian, Inc.
  
 This software is provided under written license and may be
 used, copied, transmitted, or stored only in accord with that
 written license.
  
 The following legend is applicable only to US Government
 contracts under FAR:
  
                    RESTRICTED RIGHTS LEGEND
  
 Use, reproduction and disclosure by the US Government is
 subject to restrictions as set forth in subparagraphs (a)
 and (c) of the Commercial Computer Software - Restricted
 Rights clause in FAR 52.227-19.
  
 Gaussian, Inc.
 340 Quinnipiac St., Bldg. 40, Wallingford CT 06492
  
  
 ---------------------------------------------------------------
 Warning -- This program may not be used in any manner that
 competes with the business of Gaussian, Inc. or will provide
 assistance to any competitor of Gaussian, Inc.  The licensee
 of this program is prohibited from giving any competitor of
 Gaussian, Inc. access to this program.  By using this program,
 the user acknowledges that Gaussian, Inc. is engaged in the
 business of creating and licensing software in the field of
 computational chemistry and represents and warrants to the
 licensee that it is not a competitor of Gaussian, Inc. and that
 it will not use this program in any manner prohibited above.
 ---------------------------------------------------------------
  

 Cite this work as:
 Gaussian 16, Revision C.01,
 M. J. Frisch, G. W. Trucks, H. B. Schlegel, G. E. Scuseria, 
 M. A. Robb, J. R. Cheeseman, G. Scalmani, V. Barone, 
 G. A. Petersson, H. Nakatsuji, X. Li, M. Caricato, A. V. Marenich, 
 J. Bloino, B. G. Janesko, R. Gomperts, B. Mennucci, H. P. Hratchian, 
 J. V. Ortiz, A. F. Izmaylov, J. L. Sonnenberg, D. Williams-Young, 
 F. Ding, F. Lipparini, F. Egidi, J. Goings, B. Peng, A. Petrone, 
 T. Henderson, D. Ranasinghe, V. G. Zakrzewski, J. Gao, N. Rega, 
 G. Zheng, W. Liang, M. Hada, M. Ehara, K. Toyota, R. Fukuda, 
 J. Hasegawa, M. Ishida, T. Nakajima, Y. Honda, O. Kitao, H. Nakai, 
 T. Vreven, K. Throssell, J. A. Montgomery, Jr., J. E. Peralta, 
 F. Ogliaro, M. J. Bearpark, J. J. Heyd, E. N. Brothers, K. N. Kudin, 
 V. N. Staroverov, T. A. Keith, R. Kobayashi, J. Normand, 
 K. Raghavachari, A. P. Rendell, J. C. Burant, S. S. Iyengar, 
 J. Tomasi, M. Cossi, J. M. Millam, M. Klene, C. Adamo, R. Cammi, 
 J. W. Ochterski, R. L. Martin, K. Morokuma, O. Farkas, 
 J. B. Foresman, and D. J. Fox, Gaussian, Inc., Wallingford CT, 2019.
 
 ******************************************
 Gaussian 16:  ES64L-G16RevC.01  3-Jul-2019
                18-Feb-2024 
 ******************************************
 %chk=Convert_toMannSiCenteredSN2_IRC_reverse.chk
 %mem=1600MB
 %nprocs=4
 Will use up to    4 processors via shared memory.
 ----------------------------------------------------------------------
 # irc=(reverse,calcfc,maxpoints=100,maxcycle=100) wb97xd/def2tzvpp geo
 m=connectivity
 ----------------------------------------------------------------------
 1/6=100,10=4,18=10,22=2,26=3,38=1,42=100,44=3,57=2,172=1/1,23;
 2/12=2,17=6,18=5,29=1,40=1/2;
 3/5=44,7=202,11=2,25=1,30=1,71=2,74=-58,140=1/1,2,3;
 4//1;
 5/5=2,38=5/2;
 8/6=4,10=90,11=11/1;
 11/6=1,8=1,9=11,15=111,16=1/1,2,10;
 10/6=1,13=1/2;
 6/7=2,8=2,9=2,10=2,28=1/1;
 7/10=1,25=1/1,2,3,16;
 1/6=100,10=4,18=10,22=2,26=3,42=100,44=3/23(2);
 2/29=1/2;
 99/5=20/99;
 2/29=1/2;
 3/5=44,7=202,11=2,25=1,30=1,71=2,74=-58,140=1/1,2,3;
 4/5=5,16=3,69=1/1;
 5/5=2,38=5/2;
 8/6=4,10=90,11=11/1;
 11/6=1,8=1,9=11,15=111,16=1/1,2,10;
 10/6=1,13=1/2;
 7/10=1,25=1/1,2,3,16;
 1/6=100,18=10,22=2,26=3,42=100,44=3/23(-8);
 2/29=1/2;
 6/7=2,8=2,9=2,10=2,19=2,28=1/1;
 99/5=20,9=1/99;
 ----------------------------------------------------------------------
 Take EG unoptimized geometry with correct imaginary frequency and buil
 d mannitol unfreeze geom from prev modredundant run and perform a TS o
 pt
 ----------------------------------------------------------------------
 Symbolic Z-matrix:
 Charge =  0 Multiplicity = 1
 Si                    1.90021  -1.22995   0.03992 
 O                     2.00947  -2.7303   -0.61831 
 H                     1.2076   -3.24372  -0.66404 
 O                     3.7915   -1.13174   0.39443 
 H                     4.29404  -1.82441  -0.03768 
 O                     2.28059   0.07111  -0.81002 
 H                     3.49871  -0.31809  -0.32166 
 O                     1.41195  -1.19332   1.6049 
 H                     2.12147  -1.18503   2.24284 
 C                    -0.96549  -0.19576   0.11644 
 H                    -0.84218  -0.27907   1.19242 
 C                    -0.64003   1.23706  -0.37038 
 H                    -1.5857    1.75889  -0.50975 
 O                    -0.01261  -1.11327  -0.48807 
 H                     0.05076  -0.79383  -1.40586 
 O                     0.00499   1.1788   -1.62597 
 H                     0.95119   0.95304  -1.46108 
 C                    -2.35415  -0.66782  -0.2989 
 H                    -2.41224  -0.66355  -1.39819 
 C                     0.15114   2.03925   0.66554 
 H                     0.99249   1.4418    1.03388 
 C                     0.73742   3.31298   0.05967 
 H                     1.0495    3.97182   0.87341 
 H                     1.63828   3.04366  -0.50207 
 C                    -2.65169  -2.074     0.19318 
 H                    -1.95389  -2.78946  -0.24937 
 H                    -2.54356  -2.09701   1.28293 
 O                    -3.2772    0.24022   0.24272 
 H                    -4.14691  -0.15165   0.14137 
 O                    -0.77263   2.28088   1.7102 
 H                    -0.31624   2.70139   2.43682 
 O                    -0.16012   4.04964  -0.73391 
 H                    -0.29626   3.5538   -1.54312 
 O                    -3.98566  -2.3567   -0.19266 
 H                    -4.29545  -3.13212   0.27043 
 
 IRC-IRC-IRC-IRC-IRC-IRC-IRC-IRC-IRC-IRC-IRC-IRC-IRC-IRC-IRC-IRC-IRC-IRC
 ------------------------------------------------------------------------
 INPUT DATA FOR L123
 ------------------------------------------------------------------------
 GENERAL PARAMETERS:
 Rxn path following direction = Reverse
 Maximum points per path      = 100
 Step size                    =   0.100 bohr
 Integration scheme           = HPC                                 
    Redo corrector integration= Yes                                 
    DWI Weight Power          =  2
    DWI will use Hessian update vectors when possible.
    Max correction cycles     = 100
 Initial Hessian              = CalcFC
 Hessian evaluation           = All updating
 Hessian updating method      = Bofill                              
 ------------------------------------------------------------------------
 IRC-IRC-IRC-IRC-IRC-IRC-IRC-IRC-IRC-IRC-IRC-IRC-IRC-IRC-IRC-IRC-IRC-IRC
                          Input orientation:                          
 ---------------------------------------------------------------------
 Center     Atomic      Atomic             Coordinates (Angstroms)
 Number     Number       Type             X           Y           Z
 ---------------------------------------------------------------------
      1         14           0        1.900214   -1.229950    0.039920
      2          8           0        2.009468   -2.730301   -0.618308
      3          1           0        1.207604   -3.243722   -0.664041
      4          8           0        3.791498   -1.131741    0.394425
      5          1           0        4.294044   -1.824406   -0.037682
      6          8           0        2.280586    0.071111   -0.810017
      7          1           0        3.498713   -0.318085   -0.321662
      8          8           0        1.411951   -1.193315    1.604900
      9          1           0        2.121465   -1.185026    2.242835
     10          6           0       -0.965485   -0.195762    0.116437
     11          1           0       -0.842177   -0.279065    1.192418
     12          6           0       -0.640031    1.237059   -0.370379
     13          1           0       -1.585699    1.758894   -0.509750
     14          8           0       -0.012612   -1.113265   -0.488072
     15          1           0        0.050755   -0.793829   -1.405860
     16          8           0        0.004994    1.178802   -1.625973
     17          1           0        0.951191    0.953035   -1.461081
     18          6           0       -2.354148   -0.667820   -0.298897
     19          1           0       -2.412244   -0.663553   -1.398185
     20          6           0        0.151139    2.039251    0.665543
     21          1           0        0.992485    1.441803    1.033880
     22          6           0        0.737419    3.312978    0.059670
     23          1           0        1.049495    3.971821    0.873413
     24          1           0        1.638281    3.043664   -0.502067
     25          6           0       -2.651689   -2.074001    0.193183
     26          1           0       -1.953892   -2.789455   -0.249373
     27          1           0       -2.543558   -2.097013    1.282930
     28          8           0       -3.277204    0.240215    0.242724
     29          1           0       -4.146905   -0.151646    0.141369
     30          8           0       -0.772629    2.280877    1.710203
     31          1           0       -0.316238    2.701388    2.436815
     32          8           0       -0.160122    4.049636   -0.733909
     33          1           0       -0.296257    3.553804   -1.543121
     34          8           0       -3.985660   -2.356700   -0.192660
     35          1           0       -4.295454   -3.132118    0.270433
 ---------------------------------------------------------------------
                    Distance matrix (angstroms):
                    1          2          3          4          5
     1  Si   0.000000
     2  O    1.642027   0.000000
     3  H    2.242888   0.953246   0.000000
     4  O    1.926726   2.599356   3.501046   0.000000
     5  H    2.467756   2.525284   3.454402   0.958673   0.000000
     6  O    1.599949   2.821022   3.487222   2.276047   2.871149
     7  H    1.875484   2.850375   3.731723   1.122738   1.726904
     8  O    1.639788   2.768033   3.064967   2.670447   3.376805
     9  H    2.214454   3.253699   3.677404   2.491680   3.213979
    10  C    3.047561   3.976693   3.823810   4.856153   5.508074
    11  H    3.123002   4.173627   4.054286   4.778576   5.502908
    12  C    3.564733   4.777160   4.855656   5.082774   5.816215
    13  H    4.624599   5.752381   5.731711   6.171511   6.901758
    14  O    1.987786   2.592407   2.461451   3.905175   4.388150
    15  H    2.387672   2.864737   2.809016   4.165137   4.575970
    16  O    3.488430   4.507149   4.682980   4.874241   5.471552
    17  H    2.814085   3.923924   4.279461   3.982027   4.573282
    18  C    4.304693   4.837044   4.410746   6.202006   6.753102
    19  H    4.581075   4.942792   4.505501   6.474493   6.940666
    20  C    3.760099   5.277337   5.549209   4.835381   5.708418
    21  H    2.991687   4.601134   4.988322   3.855711   4.766200
    22  C    4.689422   6.212808   6.613255   5.403239   6.249142
    23  H    5.336371   6.932908   7.379216   5.813291   6.704733
    24  H    4.315801   5.787051   6.304200   4.782682   5.564785
    25  C    4.632033   4.776571   4.122769   6.514830   6.954049
    26  H    4.167719   3.980934   3.220771   6.014316   6.325570
    27  H    4.695102   4.974516   4.379138   6.469476   6.969299
    28  O    5.385923   6.124887   5.750960   7.202210   7.852712
    29  H    6.143344   6.717700   6.235414   8.002679   8.606963
    30  O    4.718034   6.186593   6.330841   5.848802   6.751268
    31  H    5.110106   6.651761   6.876172   5.978104   6.918139
    32  O    5.719950   7.119553   7.420824   6.613252   7.404640
    33  H    5.496800   6.757338   7.017175   6.512922   7.229271
    34  O    5.997264   6.021820   5.289518   7.894896   8.298244
    35  H    6.485189   6.379918   5.582951   8.331607   8.693936
                    6          7          8          9         10
     6  O    0.000000
     7  H    1.368867   0.000000
     8  O    2.860966   2.971909   0.000000
     9  H    3.305012   3.037276   0.954170   0.000000
    10  C    3.386224   4.487311   2.977052   3.876786   0.000000
    11  H    3.726126   4.597531   2.467202   3.272203   1.086223
    12  C    3.175330   4.421544   3.744206   4.507909   1.547865
    13  H    4.229294   5.495495   4.708841   5.475989   2.144168
    14  O    2.600991   3.604082   2.533046   3.466596   1.454376
    15  H    2.464812   3.645577   3.328231   4.213532   1.925569
    16  O    2.659151   4.018454   4.247942   5.003480   2.422240
    17  H    1.723069   3.066576   3.770856   4.433942   2.735314
    18  C    4.721019   5.863345   4.252539   5.172912   1.524377
    19  H    4.786264   6.018111   4.891179   5.838106   2.146164
    20  C    3.253521   4.211634   3.594652   4.094630   2.558056
    21  H    2.634000   3.349012   2.728711   3.104255   2.712373
    22  C    3.694242   4.577639   4.811383   5.187854   3.900559
    23  H    4.423241   5.082339   5.229252   5.442197   4.690619
    24  H    3.056707   3.846441   4.737354   5.064560   4.201907
    25  C    5.471312   6.416833   4.391096   5.270137   2.525263
    26  H    5.140814   5.986969   4.161116   5.039229   2.799644
    27  H    5.688018   6.499872   4.070183   4.849286   2.732357
    28  O    5.659142   6.822264   5.089077   5.931052   2.355858
    29  H    6.501338   7.661434   5.841907   6.691524   3.181824
    30  O    4.533949   5.396984   4.105300   4.546643   2.951444
    31  H    4.919733   5.592876   4.341363   4.591758   3.768176
    32  O    4.668138   5.712618   5.952308   6.439591   4.403987
    33  H    4.393940   5.557453   5.946692   6.529575   4.154665
    34  O    6.748425   7.758120   5.806797   6.678430   3.726480
    35  H    7.394075   8.307731   6.173672   6.989877   4.442364
                   11         12         13         14         15
    11  H    0.000000
    12  C    2.186739   0.000000
    13  H    2.757440   1.089047   0.000000
    14  O    2.051369   2.435473   3.274808   0.000000
    15  H    2.795238   2.381998   3.161865   0.973853   0.000000
    16  O    3.284266   1.412787   2.027995   2.559043   1.985401
    17  H    3.431515   1.949946   2.826703   2.478963   1.966054
    18  C    2.158983   2.563566   2.554195   2.391025   2.650435
    19  H    3.053550   2.794539   2.709381   2.605529   2.466454
    20  C    2.576599   1.530554   2.115779   3.360952   3.511001
    21  H    2.520418   2.163093   3.021651   3.139256   3.440529
    22  C    4.084240   2.528191   2.852419   4.522631   4.414199
    23  H    4.663713   3.446801   3.708697   5.370271   5.376243
    24  H    4.479339   2.910648   3.470553   4.472773   4.250110
    25  C    2.737627   3.915034   4.039992   2.889957   3.391015
    26  H    3.101085   4.237179   4.570650   2.575880   3.055911
    27  H    2.491551   4.180058   4.358809   3.241897   3.957062
    28  O    2.664756   2.885182   2.394534   3.608813   3.855177
    29  H    3.470183   3.806383   3.260965   4.291070   4.519587
    30  O    2.612708   2.331514   2.421103   4.114637   4.454394
    31  H    3.272344   3.182678   3.343960   4.816506   5.207435
    32  O    4.786814   2.876292   2.707400   5.170855   4.894399
    33  H    4.740473   2.619315   2.439717   4.793236   4.363619
    34  O    4.014535   4.913239   4.774775   4.173549   4.495227
    35  H    4.573302   5.732579   5.645658   4.795189   5.212206
                   16         17         18         19         20
    16  O    0.000000
    17  H    0.986635   0.000000
    18  C    3.276690   3.860454   0.000000
    19  H    3.047819   3.732293   1.100830   0.000000
    20  C    2.452096   2.518428   3.812459   4.258527   0.000000
    21  H    2.849408   2.542721   4.174537   4.683977   1.095664
    22  C    2.816478   2.815619   5.053030   5.278117   1.527477
    23  H    3.890870   3.817407   5.872424   6.215343   2.141280
    24  H    2.721856   2.400527   5.454895   5.563563   2.140969
    25  C    4.576901   4.988014   1.519216   2.139895   4.999781
    26  H    4.634579   4.890192   2.159628   2.459536   5.346459
    27  H    5.068313   5.389403   2.140244   3.043095   4.975062
    28  O    3.891760   4.614151   1.403536   2.063379   3.894720
    29  H    4.704451   5.456991   1.916833   2.375147   4.852625
    30  O    3.598519   3.846006   3.902883   4.584766   1.415290
    31  H    4.350598   4.456087   4.794660   5.515732   1.947889
    32  O    3.010769   3.369382   5.220860   5.265688   2.469210
    33  H    2.395465   2.885629   4.858510   4.720647   2.715185
    34  O    5.520822   6.077478   2.350624   2.606852   6.097049
    35  H    6.377636   6.871237   3.188349   3.524852   6.831644
                   21         22         23         24         25
    21  H    0.000000
    22  C    2.124956   0.000000
    23  H    2.535743   1.092540   0.000000
    24  H    2.311308   1.095277   1.760707   0.000000
    25  C    5.132997   6.365801   7.121337   6.713994   0.000000
    26  H    5.313325   6.676702   7.483036   6.855132   1.093001
    27  H    5.008877   6.444314   7.064593   6.862984   1.095340
    28  O    4.505551   5.058911   5.748302   5.707542   2.397774
    29  H    5.454263   5.988899   6.673937   6.640210   2.435940
    30  O    2.068112   2.463684   2.622908   3.359832   4.979677
    31  H    2.295112   2.671152   2.433814   3.546029   5.769970
    32  O    3.354754   1.406418   2.013135   2.073640   6.675802
    33  H    3.572442   1.922348   2.797396   2.255321   6.343107
    34  O    6.380827   7.383522   8.157173   7.803100   1.417135
    35  H    7.033200   8.180067   8.910556   8.599201   1.956411
                   26         27         28         29         30
    26  H    0.000000
    27  H    1.781891   0.000000
    28  O    3.342486   2.661372   0.000000
    29  H    3.452538   2.767370   0.959275   0.000000
    30  O    5.562696   4.741801   3.548337   4.445689   0.000000
    31  H    6.328260   5.414523   4.431560   5.299329   0.955556
    32  O    7.086999   6.894179   5.018137   5.857587   3.078532
    33  H    6.682699   6.705867   4.801579   5.603156   3.525818
    34  O    2.078118   2.079534   2.726800   2.236032   5.954123
    35  H    2.422917   2.272825   3.522816   2.986961   6.616929
                   31         32         33         34         35
    31  H    0.000000
    32  O    3.449005   0.000000
    33  H    4.070246   0.958752   0.000000
    34  O    6.779606   7.481232   7.097147   0.000000
    35  H    7.386282   8.347890   7.999007   0.954830   0.000000
 Symmetry turned off by external request.
 Stoichiometry    C6H18O10Si
 Framework group  C1[X(C6H18O10Si)]
 Deg. of freedom    99
 Full point group                 C1      NOp   1
 Rotational constants (GHZ):           0.4122169           0.3564248           0.2247769
 Standard basis: def2TZVPP (5D, 7F)
   790 basis functions,  1191 primitive gaussians,   894 cartesian basis functions
    74 alpha electrons       74 beta electrons
       nuclear repulsion energy      1681.8409533390 Hartrees.
 NAtoms=   35 NActive=   35 NUniq=   35 SFac= 1.00D+00 NAtFMM=   60 NAOKFM=F Big=F
 Integral buffers will be    131072 words long.
 Raffenetti 2 integral format.
 Two-electron integral symmetry is turned off.
 Nuclear repulsion after empirical dispersion term =     1681.8131382899 Hartrees.
 One-electron integrals computed using PRISM.
   1 Symmetry operations used in ECPInt.
 ECPInt:  NShTT=   44551 NPrTT=  121227 LenC2=   39383 LenP2D=   79128.
 LDataN:  DoStor=T MaxTD1= 6 Len=  172
 NBasis=   790 RedAO= T EigKep=  3.84D-05  NBF=   790
 NBsUse=   790 1.00D-06 EigRej= -1.00D+00 NBFU=   790
 ExpMin= 7.01D-02 ExpMax= 4.48D+04 ExpMxC= 1.53D+03 IAcc=3 IRadAn=         5 AccDes= 0.00D+00
 Harris functional with IExCor= 4639 and IRadAn=       5 diagonalized for initial guess.
 HarFok:  IExCor= 4639 AccDes= 0.00D+00 IRadAn=         5 IDoV= 1 UseB2=F ITyADJ=14
 ICtDFT=  3500011 ScaDFX=  1.000000  1.000000  1.000000  1.000000
 FoFCou: FMM=F IPFlag=           0 FMFlag=      100000 FMFlg1=           0
         NFxFlg=           0 DoJE=T BraDBF=F KetDBF=T FulRan=T
         wScrn=  0.000000 ICntrl=       500 IOpCl=  0 I1Cent=   200000004 NGrid=           0
         NMat0=    1 NMatS0=      1 NMatT0=    0 NMatD0=    1 NMtDS0=    0 NMtDT0=    0
 Symmetry not used in FoFCou.
 Requested convergence on RMS density matrix=1.00D-08 within 128 cycles.
 Requested convergence on MAX density matrix=1.00D-06.
 Requested convergence on             energy=1.00D-06.
 No special actions if energy rises.
 Integral accuracy reduced to 1.0D-05 until final iterations.
 Initial convergence to 1.0D-05 achieved.  Increase integral accuracy.
 SCF Done:  E(RwB97XD) =  -1281.48943141     A.U. after   14 cycles
            NFock= 14  Conv=0.69D-08     -V/T= 2.0037
 DoSCS=F DFT=T ScalE2(SS,OS)=  1.000000  1.000000
 Range of M.O.s used for correlation:     1   790
 NBasis=   790 NAE=    74 NBE=    74 NFC=     0 NFV=     0
 NROrb=    790 NOA=    74 NOB=    74 NVA=   716 NVB=   716

 **** Warning!!: The largest alpha MO coefficient is  0.22093634D+02

   1 Symmetry operations used in ECPInt.
 ECPInt:  NShTT=   44551 NPrTT=  121227 LenC2=   39383 LenP2D=   79128.
 LDataN:  DoStor=T MaxTD1= 7 Len=  274
 Number of processors reduced to   2 by ecpmxn.
 Symmetrizing basis deriv contribution to polar:
 IMax=3 JMax=2 DiffMx= 0.00D+00
 G2DrvN: will do    18 centers at a time, making    2 passes.
 Calling FoFCou, ICntrl=  3107 FMM=F I1Cent=   0 AccDes= 0.00D+00.
 Calling FoFCou, ICntrl=  3107 FMM=F I1Cent=   0 AccDes= 0.00D+00.
 End of G2Drv F.D. properties file   721 does not exist.
 End of G2Drv F.D. properties file   722 does not exist.
 End of G2Drv F.D. properties file   788 does not exist.
          IDoAtm=11111111111111111111111111111111111
          Differentiating once with respect to nuclear coordinates.
 CalDSu exits because no D1Ps are significant.
          There are   108 degrees of freedom in the 1st order CPHF.  IDoFFX=6 NUNeed=     0.
    102 vectors produced by pass  0 Test12= 5.30D-14 1.00D-09 XBig12= 8.21D-02 3.71D-02.
 AX will form    52 AO Fock derivatives at one time.
    102 vectors produced by pass  1 Test12= 5.30D-14 1.00D-09 XBig12= 2.34D-02 2.09D-02.
    102 vectors produced by pass  2 Test12= 5.30D-14 1.00D-09 XBig12= 9.35D-04 4.09D-03.
    102 vectors produced by pass  3 Test12= 5.30D-14 1.00D-09 XBig12= 1.08D-05 4.65D-04.
    102 vectors produced by pass  4 Test12= 5.30D-14 1.00D-09 XBig12= 1.01D-07 4.46D-05.
    102 vectors produced by pass  5 Test12= 5.30D-14 1.00D-09 XBig12= 8.59D-10 2.02D-06.
    101 vectors produced by pass  6 Test12= 5.30D-14 1.00D-09 XBig12= 5.81D-12 1.69D-07.
     38 vectors produced by pass  7 Test12= 5.30D-14 1.00D-09 XBig12= 3.80D-14 1.64D-08.
      7 vectors produced by pass  8 Test12= 5.30D-14 1.00D-09 XBig12= 3.54D-15 2.72D-09.
      1 vectors produced by pass  9 Test12= 5.30D-14 1.00D-09 XBig12= 1.01D-15 1.59D-09.
 InvSVY:  IOpt=1 It=  1 EMax= 2.78D-16
 Solved reduced A of dimension   759 with   108 vectors.
 End of Minotr F.D. properties file   721 does not exist.
 End of Minotr F.D. properties file   722 does not exist.
 End of Minotr F.D. properties file   788 does not exist.

 **********************************************************************

            Population analysis using the SCF Density.

 **********************************************************************

 Alpha  occ. eigenvalues --  -66.32031 -19.32809 -19.27892 -19.27289 -19.25582
 Alpha  occ. eigenvalues --  -19.25529 -19.25475 -19.25070 -19.24569 -19.23279
 Alpha  occ. eigenvalues --  -19.18931 -10.35928 -10.34914 -10.34507 -10.33698
 Alpha  occ. eigenvalues --  -10.32733 -10.31716  -5.43459  -3.78291  -3.77894
 Alpha  occ. eigenvalues --   -3.77687  -1.20743  -1.15936  -1.15450  -1.13756
 Alpha  occ. eigenvalues --   -1.13091  -1.12182  -1.11519  -1.10883  -1.10707
 Alpha  occ. eigenvalues --   -1.01811  -0.89634  -0.85355  -0.81400  -0.75573
 Alpha  occ. eigenvalues --   -0.72103  -0.69225  -0.67930  -0.66332  -0.64729
 Alpha  occ. eigenvalues --   -0.64213  -0.63146  -0.61997  -0.60825  -0.58051
 Alpha  occ. eigenvalues --   -0.57915  -0.57445  -0.56467  -0.55010  -0.54570
 Alpha  occ. eigenvalues --   -0.53373  -0.52398  -0.50779  -0.49814  -0.48934
 Alpha  occ. eigenvalues --   -0.48645  -0.47901  -0.46294  -0.45889  -0.45302
 Alpha  occ. eigenvalues --   -0.45188  -0.44515  -0.42833  -0.42606  -0.41997
 Alpha  occ. eigenvalues --   -0.41150  -0.40654  -0.38835  -0.38008  -0.37722
 Alpha  occ. eigenvalues --   -0.36902  -0.36491  -0.35822  -0.33448
 Alpha virt. eigenvalues --    0.07385   0.09006   0.10472   0.11947   0.12612
 Alpha virt. eigenvalues --    0.13174   0.14128   0.14531   0.15639   0.16884
 Alpha virt. eigenvalues --    0.17677   0.18388   0.19387   0.19988   0.20333
 Alpha virt. eigenvalues --    0.21228   0.21357   0.21897   0.23196   0.23336
 Alpha virt. eigenvalues --    0.23663   0.24445   0.24671   0.25698   0.26460
 Alpha virt. eigenvalues --    0.26917   0.28102   0.28622   0.29034   0.29981
 Alpha virt. eigenvalues --    0.31141   0.31468   0.32508   0.33737   0.34090
 Alpha virt. eigenvalues --    0.35038   0.35232   0.36395   0.36730   0.37403
 Alpha virt. eigenvalues --    0.38125   0.38401   0.39460   0.39889   0.40433
 Alpha virt. eigenvalues --    0.40903   0.41351   0.42235   0.42487   0.42965
 Alpha virt. eigenvalues --    0.43734   0.44152   0.44492   0.45575   0.46163
 Alpha virt. eigenvalues --    0.46314   0.47318   0.47794   0.48695   0.48783
 Alpha virt. eigenvalues --    0.49313   0.50063   0.50410   0.50558   0.51242
 Alpha virt. eigenvalues --    0.51706   0.52067   0.53127   0.53351   0.53647
 Alpha virt. eigenvalues --    0.54590   0.54973   0.55802   0.56150   0.56909
 Alpha virt. eigenvalues --    0.57653   0.58081   0.58384   0.58887   0.59836
 Alpha virt. eigenvalues --    0.60523   0.60789   0.61323   0.62549   0.62798
 Alpha virt. eigenvalues --    0.63681   0.64131   0.64874   0.65108   0.66022
 Alpha virt. eigenvalues --    0.66745   0.67196   0.67985   0.68326   0.68944
 Alpha virt. eigenvalues --    0.70074   0.70256   0.71461   0.72587   0.73533
 Alpha virt. eigenvalues --    0.74358   0.75064   0.75465   0.76176   0.76653
 Alpha virt. eigenvalues --    0.77263   0.78161   0.79282   0.79898   0.81133
 Alpha virt. eigenvalues --    0.81854   0.82034   0.82896   0.84207   0.85751
 Alpha virt. eigenvalues --    0.86924   0.87164   0.87613   0.89001   0.89542
 Alpha virt. eigenvalues --    0.90752   0.91347   0.91969   0.92476   0.92725
 Alpha virt. eigenvalues --    0.93524   0.95014   0.95161   0.96211   0.96308
 Alpha virt. eigenvalues --    0.97758   0.98464   0.98787   1.00030   1.00652
 Alpha virt. eigenvalues --    1.01894   1.02927   1.03199   1.04031   1.05263
 Alpha virt. eigenvalues --    1.06030   1.07373   1.07583   1.08347   1.09033
 Alpha virt. eigenvalues --    1.09964   1.10587   1.11105   1.11714   1.12128
 Alpha virt. eigenvalues --    1.13891   1.14602   1.15372   1.15719   1.16205
 Alpha virt. eigenvalues --    1.16947   1.19215   1.19258   1.20161   1.20592
 Alpha virt. eigenvalues --    1.21361   1.21812   1.22268   1.22747   1.24800
 Alpha virt. eigenvalues --    1.25780   1.26601   1.27536   1.27707   1.28136
 Alpha virt. eigenvalues --    1.28924   1.29561   1.29927   1.30698   1.31981
 Alpha virt. eigenvalues --    1.33304   1.34366   1.34705   1.35260   1.36179
 Alpha virt. eigenvalues --    1.37018   1.37697   1.38200   1.39309   1.39831
 Alpha virt. eigenvalues --    1.40828   1.41836   1.42493   1.43219   1.43888
 Alpha virt. eigenvalues --    1.44703   1.45541   1.46285   1.46846   1.47982
 Alpha virt. eigenvalues --    1.48692   1.49766   1.50415   1.51793   1.51940
 Alpha virt. eigenvalues --    1.52314   1.53825   1.54478   1.55438   1.56507
 Alpha virt. eigenvalues --    1.57253   1.58130   1.59271   1.60624   1.62464
 Alpha virt. eigenvalues --    1.63421   1.64752   1.65372   1.66730   1.67170
 Alpha virt. eigenvalues --    1.68089   1.68935   1.71262   1.72516   1.74347
 Alpha virt. eigenvalues --    1.75008   1.76272   1.78267   1.79621   1.80746
 Alpha virt. eigenvalues --    1.82460   1.84397   1.85933   1.87504   1.88320
 Alpha virt. eigenvalues --    1.89476   1.90596   1.91724   1.92946   1.93084
 Alpha virt. eigenvalues --    1.94559   1.95417   1.96559   1.97001   1.97642
 Alpha virt. eigenvalues --    1.98673   1.99157   1.99942   2.01537   2.02026
 Alpha virt. eigenvalues --    2.03022   2.04169   2.04340   2.04516   2.06413
 Alpha virt. eigenvalues --    2.06746   2.07205   2.08693   2.09371   2.10257
 Alpha virt. eigenvalues --    2.10586   2.11492   2.11934   2.12396   2.13291
 Alpha virt. eigenvalues --    2.14568   2.14939   2.15702   2.17281   2.18793
 Alpha virt. eigenvalues --    2.19974   2.20715   2.21915   2.23723   2.24942
 Alpha virt. eigenvalues --    2.25818   2.26230   2.27110   2.28988   2.30141
 Alpha virt. eigenvalues --    2.31654   2.32618   2.33027   2.34999   2.35814
 Alpha virt. eigenvalues --    2.36854   2.38200   2.40049   2.40745   2.41148
 Alpha virt. eigenvalues --    2.43464   2.45359   2.46687   2.47759   2.49538
 Alpha virt. eigenvalues --    2.50061   2.53965   2.54976   2.57648   2.60177
 Alpha virt. eigenvalues --    2.60265   2.62134   2.62687   2.64606   2.66506
 Alpha virt. eigenvalues --    2.67257   2.68102   2.69941   2.72302   2.73467
 Alpha virt. eigenvalues --    2.74294   2.75246   2.76353   2.77044   2.77465
 Alpha virt. eigenvalues --    2.78816   2.80209   2.82188   2.82721   2.84851
 Alpha virt. eigenvalues --    2.85187   2.86611   2.87199   2.87653   2.88170
 Alpha virt. eigenvalues --    2.89844   2.90929   2.93368   2.94019   2.95547
 Alpha virt. eigenvalues --    2.95699   2.97131   2.98917   2.99405   2.99780
 Alpha virt. eigenvalues --    3.02301   3.02453   3.03704   3.04597   3.06511
 Alpha virt. eigenvalues --    3.07044   3.08458   3.09461   3.10449   3.11074
 Alpha virt. eigenvalues --    3.12776   3.13212   3.13275   3.13727   3.15893
 Alpha virt. eigenvalues --    3.16114   3.16898   3.17862   3.18501   3.19078
 Alpha virt. eigenvalues --    3.19551   3.21380   3.22377   3.23441   3.24425
 Alpha virt. eigenvalues --    3.24993   3.25634   3.26119   3.28259   3.29136
 Alpha virt. eigenvalues --    3.29761   3.30734   3.31418   3.31618   3.32306
 Alpha virt. eigenvalues --    3.33510   3.33613   3.35024   3.36068   3.36541
 Alpha virt. eigenvalues --    3.36895   3.38031   3.38525   3.39535   3.40083
 Alpha virt. eigenvalues --    3.41241   3.41952   3.42391   3.42999   3.43790
 Alpha virt. eigenvalues --    3.44117   3.44504   3.44894   3.45643   3.46283
 Alpha virt. eigenvalues --    3.47029   3.47830   3.48111   3.48921   3.50138
 Alpha virt. eigenvalues --    3.50815   3.51744   3.52348   3.53416   3.54443
 Alpha virt. eigenvalues --    3.54527   3.56101   3.57494   3.58164   3.58878
 Alpha virt. eigenvalues --    3.59490   3.60582   3.61003   3.62759   3.63302
 Alpha virt. eigenvalues --    3.64907   3.65782   3.66795   3.67336   3.68657
 Alpha virt. eigenvalues --    3.70562   3.71136   3.72033   3.73595   3.74016
 Alpha virt. eigenvalues --    3.75130   3.75877   3.76207   3.77879   3.78713
 Alpha virt. eigenvalues --    3.79268   3.79889   3.81831   3.82275   3.83533
 Alpha virt. eigenvalues --    3.84249   3.85691   3.86389   3.86643   3.87783
 Alpha virt. eigenvalues --    3.89176   3.89703   3.90307   3.90590   3.92878
 Alpha virt. eigenvalues --    3.93555   3.94568   3.95025   3.96411   3.97830
 Alpha virt. eigenvalues --    3.98135   3.99810   4.00563   4.01341   4.02198
 Alpha virt. eigenvalues --    4.02443   4.02893   4.04159   4.05107   4.05512
 Alpha virt. eigenvalues --    4.06293   4.07412   4.08708   4.08925   4.10241
 Alpha virt. eigenvalues --    4.11176   4.11417   4.12145   4.13022   4.13300
 Alpha virt. eigenvalues --    4.14120   4.14947   4.15692   4.16290   4.17493
 Alpha virt. eigenvalues --    4.17695   4.18005   4.19617   4.19875   4.20315
 Alpha virt. eigenvalues --    4.21031   4.22700   4.23420   4.24391   4.26024
 Alpha virt. eigenvalues --    4.26993   4.28119   4.28655   4.29535   4.31131
 Alpha virt. eigenvalues --    4.31450   4.33283   4.34028   4.35104   4.35361
 Alpha virt. eigenvalues --    4.36344   4.36952   4.37153   4.38660   4.40192
 Alpha virt. eigenvalues --    4.40451   4.42695   4.42730   4.43971   4.44500
 Alpha virt. eigenvalues --    4.46917   4.47273   4.48813   4.50217   4.50732
 Alpha virt. eigenvalues --    4.51384   4.54642   4.54926   4.57102   4.58178
 Alpha virt. eigenvalues --    4.59016   4.59952   4.61876   4.62996   4.64204
 Alpha virt. eigenvalues --    4.64786   4.68141   4.68949   4.69499   4.70981
 Alpha virt. eigenvalues --    4.71931   4.73426   4.74811   4.77296   4.77375
 Alpha virt. eigenvalues --    4.79307   4.79687   4.81755   4.82288   4.85222
 Alpha virt. eigenvalues --    4.87483   4.89539   4.90608   4.90934   4.91515
 Alpha virt. eigenvalues --    4.92376   4.93019   4.94345   4.96067   4.96871
 Alpha virt. eigenvalues --    4.97981   4.99119   5.00591   5.01256   5.02899
 Alpha virt. eigenvalues --    5.04383   5.07083   5.07890   5.08579   5.09587
 Alpha virt. eigenvalues --    5.10462   5.11567   5.13139   5.13389   5.14513
 Alpha virt. eigenvalues --    5.16583   5.17674   5.18160   5.18942   5.21119
 Alpha virt. eigenvalues --    5.24549   5.26125   5.26769   5.27441   5.28889
 Alpha virt. eigenvalues --    5.31645   5.32472   5.34274   5.35816   5.37231
 Alpha virt. eigenvalues --    5.38651   5.39261   5.40925   5.41812   5.44323
 Alpha virt. eigenvalues --    5.45641   5.45878   5.46835   5.48504   5.50694
 Alpha virt. eigenvalues --    5.52573   5.55730   5.57398   5.58684   5.59901
 Alpha virt. eigenvalues --    5.60748   5.61598   5.63661   5.64753   5.66024
 Alpha virt. eigenvalues --    5.67249   5.68451   5.69351   5.72418   5.73175
 Alpha virt. eigenvalues --    5.74031   5.75118   5.76223   5.77914   5.79174
 Alpha virt. eigenvalues --    5.80191   5.81854   5.82638   5.83367   5.85690
 Alpha virt. eigenvalues --    5.87884   5.89320   5.90819   5.95502   5.98511
 Alpha virt. eigenvalues --    6.00580   6.02344   6.06094   6.06878   6.08226
 Alpha virt. eigenvalues --    6.10936   6.13908   6.15635   6.18797   6.22518
 Alpha virt. eigenvalues --    6.24887   6.27839   6.48762   6.52525   6.53243
 Alpha virt. eigenvalues --    6.55406   6.56061   6.58962   6.60369   6.61754
 Alpha virt. eigenvalues --    6.62356   6.62924   6.63479   6.66294   6.66741
 Alpha virt. eigenvalues --    6.67458   6.68242   6.69095   6.71628   6.72264
 Alpha virt. eigenvalues --    6.73521   6.74693   6.76808   6.77208   6.77382
 Alpha virt. eigenvalues --    6.78256   6.79088   6.79350   6.80037   6.80716
 Alpha virt. eigenvalues --    6.81380   6.82283   6.82733   6.84012   6.85672
 Alpha virt. eigenvalues --    6.86190   6.87008   6.87272   6.87775   6.88612
 Alpha virt. eigenvalues --    6.89736   6.90469   6.92092   6.93456   6.94616
 Alpha virt. eigenvalues --    6.97363   6.98454   7.02880   7.03841   7.04644
 Alpha virt. eigenvalues --    7.05380   7.07242   7.08780   7.12071   7.12725
 Alpha virt. eigenvalues --    7.16439   7.18372   7.19338   7.21269   7.22011
 Alpha virt. eigenvalues --    7.24929   7.28305   7.30289   7.36003   7.38882
 Alpha virt. eigenvalues --    7.40035   7.42003   7.44675   7.47133   7.49672
 Alpha virt. eigenvalues --    7.50610   7.52662   7.53381   7.54221   7.58784
 Alpha virt. eigenvalues --    7.60245   7.62807   7.65925   7.66960   7.71149
 Alpha virt. eigenvalues --    7.78019   7.80552   7.84293   7.91015  12.85247
 Alpha virt. eigenvalues --   23.17262  23.25915  23.31902  23.34758  23.46554
 Alpha virt. eigenvalues --   23.47027  43.91753  43.96263  44.01806  44.15058
 Alpha virt. eigenvalues --   44.18321  44.19487  44.32762  44.37302  44.42981
 Alpha virt. eigenvalues --   44.47109
          Condensed to atoms (all electrons):
               1          2          3          4          5          6
     1  Si  11.534723   0.451811  -0.021039   0.237267  -0.012277   0.486564
     2  O    0.451811   7.694371   0.347981  -0.030298   0.002867  -0.018955
     3  H   -0.021039   0.347981   0.491042   0.001836  -0.000222   0.000504
     4  O    0.237267  -0.030298   0.001836   7.758039   0.326839  -0.130619
     5  H   -0.012277   0.002867  -0.000222   0.326839   0.494836   0.005341
     6  O    0.486564  -0.018955   0.000504  -0.130619   0.005341   8.169271
     7  H   -0.018255   0.000713  -0.000280   0.223935  -0.007355   0.146479
     8  O    0.412678  -0.025573  -0.000976  -0.023259   0.000902  -0.023769
     9  H   -0.016798   0.000146   0.000001   0.001683  -0.000190  -0.000594
    10  C   -0.015469   0.000414  -0.000460  -0.000283  -0.000009  -0.005105
    11  H   -0.007013   0.000107  -0.000071   0.000079  -0.000001   0.000283
    12  C    0.027429  -0.000168   0.000070   0.000050   0.000027   0.000739
    13  H    0.000027   0.000000   0.000001  -0.000001   0.000000  -0.000207
    14  O    0.200624  -0.026431   0.003422   0.000763   0.000059  -0.026818
    15  H   -0.011838   0.002997   0.000037  -0.000108  -0.000053   0.001526
    16  O   -0.005577  -0.000018   0.000000  -0.000111   0.000012  -0.035251
    17  H   -0.007524  -0.000466  -0.000053   0.000563  -0.000095   0.068031
    18  C   -0.002150  -0.000154   0.000094   0.000001   0.000002   0.000137
    19  H   -0.000492  -0.000014  -0.000028  -0.000000  -0.000000   0.000023
    20  C   -0.015951   0.000128  -0.000024   0.000159  -0.000049   0.008605
    21  H   -0.000741  -0.000221  -0.000022  -0.000145   0.000037   0.000706
    22  C    0.001512  -0.000008   0.000001  -0.000002   0.000007  -0.012166
    23  H    0.000170  -0.000000   0.000000  -0.000001   0.000000   0.000051
    24  H   -0.001043   0.000006  -0.000000  -0.000028  -0.000004   0.008379
    25  C    0.001241  -0.000293  -0.000337  -0.000000  -0.000000  -0.000034
    26  H    0.000181   0.000306   0.001181   0.000003   0.000000   0.000011
    27  H   -0.000167  -0.000007  -0.000020  -0.000000  -0.000000   0.000004
    28  O    0.000108   0.000000   0.000002   0.000000   0.000000   0.000002
    29  H   -0.000002  -0.000000   0.000000   0.000000   0.000000  -0.000000
    30  O    0.000397   0.000000   0.000000   0.000001   0.000000   0.000208
    31  H    0.000005  -0.000000  -0.000000  -0.000000  -0.000000   0.000019
    32  O   -0.000014  -0.000000  -0.000000  -0.000000  -0.000000   0.000036
    33  H    0.000030   0.000000  -0.000000   0.000000  -0.000000   0.000158
    34  O    0.000011   0.000000  -0.000006   0.000000  -0.000000   0.000000
    35  H   -0.000002   0.000000   0.000000   0.000000  -0.000000   0.000000
               7          8          9         10         11         12
     1  Si  -0.018255   0.412678  -0.016798  -0.015469  -0.007013   0.027429
     2  O    0.000713  -0.025573   0.000146   0.000414   0.000107  -0.000168
     3  H   -0.000280  -0.000976   0.000001  -0.000460  -0.000071   0.000070
     4  O    0.223935  -0.023259   0.001683  -0.000283   0.000079   0.000050
     5  H   -0.007355   0.000902  -0.000190  -0.000009  -0.000001   0.000027
     6  O    0.146479  -0.023769  -0.000594  -0.005105   0.000283   0.000739
     7  H    0.372140   0.000114  -0.000036   0.000443   0.000014  -0.000839
     8  O    0.000114   7.710626   0.341927  -0.011444   0.011544   0.000298
     9  H   -0.000036   0.341927   0.501815  -0.001896  -0.000058   0.000844
    10  C    0.000443  -0.011444  -0.001896   5.362113   0.386580   0.116922
    11  H    0.000014   0.011544  -0.000058   0.386580   0.542618  -0.040730
    12  C   -0.000839   0.000298   0.000844   0.116922  -0.040730   5.235160
    13  H    0.000002  -0.000105   0.000008  -0.009662  -0.001809   0.397455
    14  O    0.001238  -0.023911   0.002018   0.135149  -0.020571  -0.017370
    15  H   -0.000301   0.001084  -0.000082  -0.035538   0.005089  -0.023055
    16  O    0.000335  -0.000001   0.000011  -0.031896   0.003699   0.191175
    17  H    0.000097   0.000121  -0.000040  -0.003854   0.000227  -0.035868
    18  C   -0.000003  -0.000789  -0.000120   0.061397  -0.000286   0.056524
    19  H    0.000002  -0.000029   0.000001  -0.011821   0.008037  -0.024051
    20  C    0.000294  -0.007341  -0.000449   0.005917  -0.000937   0.109321
    21  H    0.000995   0.007095   0.000898  -0.002548  -0.004665  -0.029412
    22  C   -0.000278   0.000982   0.000067   0.005811  -0.000054  -0.030852
    23  H   -0.000006   0.000003  -0.000005  -0.000361  -0.000118   0.017399
    24  H    0.000348  -0.000110  -0.000005   0.002695  -0.000336  -0.008569
    25  C    0.000003   0.000896   0.000034   0.014338  -0.016510  -0.008350
    26  H   -0.000001  -0.000170   0.000007  -0.024521   0.001195  -0.000857
    27  H   -0.000000   0.000107  -0.000016   0.019715   0.006034  -0.000955
    28  O   -0.000000   0.000011   0.000000  -0.068070   0.009748  -0.029955
    29  H    0.000000   0.000001   0.000000   0.010358  -0.000096  -0.000472
    30  O   -0.000004   0.000088   0.000011  -0.012457   0.022107  -0.070330
    31  H    0.000000   0.000014  -0.000008   0.001372  -0.000801   0.007302
    32  O    0.000001  -0.000002   0.000000   0.005859  -0.000169   0.014005
    33  H   -0.000003  -0.000001  -0.000000   0.000108  -0.000018   0.009289
    34  O   -0.000000   0.000001   0.000000   0.010032  -0.000365  -0.000715
    35  H   -0.000000   0.000000  -0.000000  -0.002340  -0.000058   0.000072
              13         14         15         16         17         18
     1  Si   0.000027   0.200624  -0.011838  -0.005577  -0.007524  -0.002150
     2  O    0.000000  -0.026431   0.002997  -0.000018  -0.000466  -0.000154
     3  H    0.000001   0.003422   0.000037   0.000000  -0.000053   0.000094
     4  O   -0.000001   0.000763  -0.000108  -0.000111   0.000563   0.000001
     5  H    0.000000   0.000059  -0.000053   0.000012  -0.000095   0.000002
     6  O   -0.000207  -0.026818   0.001526  -0.035251   0.068031   0.000137
     7  H    0.000002   0.001238  -0.000301   0.000335   0.000097  -0.000003
     8  O   -0.000105  -0.023911   0.001084  -0.000001   0.000121  -0.000789
     9  H    0.000008   0.002018  -0.000082   0.000011  -0.000040  -0.000120
    10  C   -0.009662   0.135149  -0.035538  -0.031896  -0.003854   0.061397
    11  H   -0.001809  -0.020571   0.005089   0.003699   0.000227  -0.000286
    12  C    0.397455  -0.017370  -0.023055   0.191175  -0.035868   0.056524
    13  H    0.520850   0.001192  -0.000132  -0.021795   0.002766  -0.004710
    14  O    0.001192   7.752042   0.313554  -0.022321   0.002473  -0.009527
    15  H   -0.000132   0.313554   0.469959   0.049850  -0.002019   0.014319
    16  O   -0.021795  -0.022321   0.049850   8.005597   0.330840  -0.005602
    17  H    0.002766   0.002473  -0.002019   0.330840   0.412106   0.000851
    18  C   -0.004710  -0.009527   0.014319  -0.005602   0.000851   5.039277
    19  H   -0.002497  -0.007301   0.005157   0.007397  -0.000149   0.409667
    20  C   -0.049020   0.000862   0.003932  -0.036645   0.001287  -0.012268
    21  H    0.006987   0.001289  -0.000364   0.000044   0.000245  -0.000507
    22  C   -0.000380   0.000039  -0.000516   0.016516  -0.000182  -0.001583
    23  H   -0.000442  -0.000008  -0.000008   0.000582   0.000009   0.000082
    24  H    0.003095   0.000044   0.000027  -0.004302  -0.000413  -0.000266
    25  C    0.001965  -0.001732  -0.003014   0.000781  -0.000003   0.227425
    26  H   -0.000117   0.009260   0.000736  -0.000093  -0.000002  -0.033573
    27  H   -0.000057  -0.000669  -0.000048  -0.000032   0.000003  -0.045293
    28  O    0.024709   0.002465   0.000050   0.000243  -0.000053   0.315026
    29  H   -0.001313  -0.000281  -0.000018  -0.000024  -0.000000  -0.042108
    30  O    0.011083   0.000353  -0.000141   0.002096  -0.000152  -0.002324
    31  H   -0.000341  -0.000018   0.000024  -0.000477  -0.000050   0.000223
    32  O    0.017244  -0.000026   0.000014  -0.011359  -0.000307  -0.000522
    33  H   -0.004778  -0.000014  -0.000026   0.014550  -0.000720   0.000175
    34  O    0.000022   0.000101  -0.000024   0.000005  -0.000001  -0.094265
    35  H    0.000008   0.000059   0.000004  -0.000000   0.000000   0.010866
              19         20         21         22         23         24
     1  Si  -0.000492  -0.015951  -0.000741   0.001512   0.000170  -0.001043
     2  O   -0.000014   0.000128  -0.000221  -0.000008  -0.000000   0.000006
     3  H   -0.000028  -0.000024  -0.000022   0.000001   0.000000  -0.000000
     4  O   -0.000000   0.000159  -0.000145  -0.000002  -0.000001  -0.000028
     5  H   -0.000000  -0.000049   0.000037   0.000007   0.000000  -0.000004
     6  O    0.000023   0.008605   0.000706  -0.012166   0.000051   0.008379
     7  H    0.000002   0.000294   0.000995  -0.000278  -0.000006   0.000348
     8  O   -0.000029  -0.007341   0.007095   0.000982   0.000003  -0.000110
     9  H    0.000001  -0.000449   0.000898   0.000067  -0.000005  -0.000005
    10  C   -0.011821   0.005917  -0.002548   0.005811  -0.000361   0.002695
    11  H    0.008037  -0.000937  -0.004665  -0.000054  -0.000118  -0.000336
    12  C   -0.024051   0.109321  -0.029412  -0.030852   0.017399  -0.008569
    13  H   -0.002497  -0.049020   0.006987  -0.000380  -0.000442   0.003095
    14  O   -0.007301   0.000862   0.001289   0.000039  -0.000008   0.000044
    15  H    0.005157   0.003932  -0.000364  -0.000516  -0.000008   0.000027
    16  O    0.007397  -0.036645   0.000044   0.016516   0.000582  -0.004302
    17  H   -0.000149   0.001287   0.000245  -0.000182   0.000009  -0.000413
    18  C    0.409667  -0.012268  -0.000507  -0.001583   0.000082  -0.000266
    19  H    0.634943   0.001358  -0.000053  -0.000161  -0.000001   0.000009
    20  C    0.001358   5.277249   0.405573   0.189403  -0.041495  -0.075622
    21  H   -0.000053   0.405573   0.596017  -0.014339  -0.001769   0.003511
    22  C   -0.000161   0.189403  -0.014339   4.731905   0.391024   0.459726
    23  H   -0.000001  -0.041495  -0.001769   0.391024   0.640630  -0.033216
    24  H    0.000009  -0.075622   0.003511   0.459726  -0.033216   0.614621
    25  C   -0.042900   0.000466  -0.000070   0.000024  -0.000001   0.000003
    26  H   -0.005267  -0.000262   0.000009  -0.000004  -0.000000   0.000000
    27  H    0.010261   0.000322  -0.000032   0.000002   0.000000   0.000000
    28  O   -0.045071  -0.001332  -0.000059   0.000042   0.000002  -0.000003
    29  H   -0.005578   0.000133   0.000008  -0.000011   0.000000   0.000000
    30  O   -0.000070   0.261058  -0.040723  -0.011238  -0.003593   0.005667
    31  H    0.000013  -0.031529  -0.009608  -0.006354   0.003765   0.000627
    32  O    0.000006  -0.086299   0.004144   0.295781  -0.033357  -0.041253
    33  H   -0.000002  -0.006974  -0.000237  -0.042707   0.010136  -0.014228
    34  O    0.006417   0.000001   0.000001  -0.000000   0.000000   0.000000
    35  H   -0.000709  -0.000004  -0.000000   0.000000  -0.000000  -0.000000
              25         26         27         28         29         30
     1  Si   0.001241   0.000181  -0.000167   0.000108  -0.000002   0.000397
     2  O   -0.000293   0.000306  -0.000007   0.000000  -0.000000   0.000000
     3  H   -0.000337   0.001181  -0.000020   0.000002   0.000000   0.000000
     4  O   -0.000000   0.000003  -0.000000   0.000000   0.000000   0.000001
     5  H   -0.000000   0.000000  -0.000000   0.000000   0.000000   0.000000
     6  O   -0.000034   0.000011   0.000004   0.000002  -0.000000   0.000208
     7  H    0.000003  -0.000001  -0.000000  -0.000000   0.000000  -0.000004
     8  O    0.000896  -0.000170   0.000107   0.000011   0.000001   0.000088
     9  H    0.000034   0.000007  -0.000016   0.000000   0.000000   0.000011
    10  C    0.014338  -0.024521   0.019715  -0.068070   0.010358  -0.012457
    11  H   -0.016510   0.001195   0.006034   0.009748  -0.000096   0.022107
    12  C   -0.008350  -0.000857  -0.000955  -0.029955  -0.000472  -0.070330
    13  H    0.001965  -0.000117  -0.000057   0.024709  -0.001313   0.011083
    14  O   -0.001732   0.009260  -0.000669   0.002465  -0.000281   0.000353
    15  H   -0.003014   0.000736  -0.000048   0.000050  -0.000018  -0.000141
    16  O    0.000781  -0.000093  -0.000032   0.000243  -0.000024   0.002096
    17  H   -0.000003  -0.000002   0.000003  -0.000053  -0.000000  -0.000152
    18  C    0.227425  -0.033573  -0.045293   0.315026  -0.042108  -0.002324
    19  H   -0.042900  -0.005267   0.010261  -0.045071  -0.005578  -0.000070
    20  C    0.000466  -0.000262   0.000322  -0.001332   0.000133   0.261058
    21  H   -0.000070   0.000009  -0.000032  -0.000059   0.000008  -0.040723
    22  C    0.000024  -0.000004   0.000002   0.000042  -0.000011  -0.011238
    23  H   -0.000001  -0.000000   0.000000   0.000002   0.000000  -0.003593
    24  H    0.000003   0.000000   0.000000  -0.000003   0.000000   0.005667
    25  C    4.751981   0.434225   0.408171  -0.028984  -0.001455   0.000118
    26  H    0.434225   0.626777  -0.042724   0.005180   0.001681  -0.000002
    27  H    0.408171  -0.042724   0.615658   0.000590  -0.002582  -0.000075
    28  O   -0.028984   0.005180   0.000590   7.824653   0.327454  -0.000006
    29  H   -0.001455   0.001681  -0.002582   0.327454   0.514582   0.000018
    30  O    0.000118  -0.000002  -0.000075  -0.000006   0.000018   7.831162
    31  H    0.000009  -0.000001   0.000001   0.000046   0.000004   0.326249
    32  O    0.000008  -0.000000   0.000000  -0.000017  -0.000001   0.004376
    33  H   -0.000004  -0.000000  -0.000000  -0.000005  -0.000000  -0.000486
    34  O    0.310450  -0.043416  -0.047979  -0.009848   0.024549  -0.000000
    35  H   -0.028796  -0.001091  -0.009108   0.000008  -0.001539   0.000000
              31         32         33         34         35
     1  Si   0.000005  -0.000014   0.000030   0.000011  -0.000002
     2  O   -0.000000  -0.000000   0.000000   0.000000   0.000000
     3  H   -0.000000  -0.000000  -0.000000  -0.000006   0.000000
     4  O   -0.000000  -0.000000   0.000000   0.000000   0.000000
     5  H   -0.000000  -0.000000  -0.000000  -0.000000  -0.000000
     6  O    0.000019   0.000036   0.000158   0.000000   0.000000
     7  H    0.000000   0.000001  -0.000003  -0.000000  -0.000000
     8  O    0.000014  -0.000002  -0.000001   0.000001   0.000000
     9  H   -0.000008   0.000000  -0.000000   0.000000  -0.000000
    10  C    0.001372   0.005859   0.000108   0.010032  -0.002340
    11  H   -0.000801  -0.000169  -0.000018  -0.000365  -0.000058
    12  C    0.007302   0.014005   0.009289  -0.000715   0.000072
    13  H   -0.000341   0.017244  -0.004778   0.000022   0.000008
    14  O   -0.000018  -0.000026  -0.000014   0.000101   0.000059
    15  H    0.000024   0.000014  -0.000026  -0.000024   0.000004
    16  O   -0.000477  -0.011359   0.014550   0.000005  -0.000000
    17  H   -0.000050  -0.000307  -0.000720  -0.000001   0.000000
    18  C    0.000223  -0.000522   0.000175  -0.094265   0.010866
    19  H    0.000013   0.000006  -0.000002   0.006417  -0.000709
    20  C   -0.031529  -0.086299  -0.006974   0.000001  -0.000004
    21  H   -0.009608   0.004144  -0.000237   0.000001  -0.000000
    22  C   -0.006354   0.295781  -0.042707  -0.000000   0.000000
    23  H    0.003765  -0.033357   0.010136   0.000000  -0.000000
    24  H    0.000627  -0.041253  -0.014228   0.000000  -0.000000
    25  C    0.000009   0.000008  -0.000004   0.310450  -0.028796
    26  H   -0.000001  -0.000000  -0.000000  -0.043416  -0.001091
    27  H    0.000001   0.000000  -0.000000  -0.047979  -0.009108
    28  O    0.000046  -0.000017  -0.000005  -0.009848   0.000008
    29  H    0.000004  -0.000001  -0.000000   0.024549  -0.001539
    30  O    0.326249   0.004376  -0.000486  -0.000000   0.000000
    31  H    0.555375   0.000498  -0.000073   0.000000  -0.000000
    32  O    0.000498   7.847891   0.333511   0.000000  -0.000000
    33  H   -0.000073   0.333511   0.513862  -0.000000   0.000000
    34  O    0.000000   0.000000  -0.000000   7.857545   0.326205
    35  H   -0.000000  -0.000000   0.000000   0.326205   0.533290
 Mulliken charges:
               1
     1  Si   0.781571
     2  O   -0.399243
     3  H    0.177364
     4  O   -0.366363
     5  H    0.189328
     6  O   -0.643559
     7  H    0.280208
     8  O   -0.371013
     9  H    0.170826
    10  C    0.098510
    11  H    0.097308
    12  C    0.138467
    13  H    0.109952
    14  O   -0.270003
    15  H    0.208929
    16  O   -0.448229
    17  H    0.232332
    18  C    0.119983
    19  H    0.062905
    20  C    0.100128
    21  H    0.077955
    22  C    0.027995
    23  H    0.050530
    24  H    0.080641
    25  C   -0.019657
    26  H    0.071350
    27  H    0.088896
    28  O   -0.326939
    29  H    0.176689
    30  O   -0.323391
    31  H    0.153711
    32  O   -0.350052
    33  H    0.188458
    34  O   -0.338721
    35  H    0.173134
 Sum of Mulliken charges =  -0.00000
 Mulliken charges with hydrogens summed into heavy atoms:
               1
     1  Si   0.781571
     2  O   -0.221879
     4  O    0.103173
     6  O   -0.643559
     8  O   -0.200187
    10  C    0.195818
    12  C    0.248419
    14  O   -0.061074
    16  O   -0.215897
    18  C    0.182888
    20  C    0.178083
    22  C    0.159166
    25  C    0.140589
    28  O   -0.150250
    30  O   -0.169680
    32  O   -0.161594
    34  O   -0.165587
 APT charges:
               1
     1  Si   0.380959
     2  O   -0.367188
     3  H    0.401230
     4  O   -0.773651
     5  H    0.861912
     6  O   -0.720611
     7  H    0.246439
     8  O   -0.930737
     9  H    0.760467
    10  C   -0.063156
    11  H    0.204518
    12  C   -0.174145
    13  H    0.424670
    14  O   -0.453379
    15  H    0.393756
    16  O   -0.527172
    17  H    0.312126
    18  C   -0.174784
    19  H    0.288694
    20  C    0.054305
    21  H    0.114180
    22  C   -0.760855
    23  H    0.593875
    24  H    0.247986
    25  C   -0.436792
    26  H    0.225791
    27  H    0.276419
    28  O   -0.917739
    29  H    0.840624
    30  O   -0.829130
    31  H    0.695671
    32  O   -0.255457
    33  H    0.173539
    34  O   -1.066657
    35  H    0.954291
 Sum of APT charges =  -0.00000
 APT charges with hydrogens summed into heavy atoms:
               1
     1  Si   0.380959
     2  O    0.034042
     4  O    0.334700
     6  O   -0.720611
     8  O   -0.170270
    10  C    0.141361
    12  C    0.250526
    14  O   -0.059623
    16  O   -0.215046
    18  C    0.113910
    20  C    0.168486
    22  C    0.081006
    25  C    0.065418
    28  O   -0.077115
    30  O   -0.133459
    32  O   -0.081918
    34  O   -0.112366
 Electronic spatial extent (au):  <R**2>=           4977.0607
 Charge=             -0.0000 electrons
 Dipole moment (field-independent basis, Debye):
    X=              0.5554    Y=             -5.5656    Z=              2.0504  Tot=              5.9572
 Quadrupole moment (field-independent basis, Debye-Ang):
   XX=            -99.5306   YY=           -107.9000   ZZ=           -104.0979
   XY=             10.1752   XZ=              2.7620   YZ=              2.2536
 Traceless Quadrupole moment (field-independent basis, Debye-Ang):
   XX=              4.3122   YY=             -4.0571   ZZ=             -0.2551
   XY=             10.1752   XZ=              2.7620   YZ=              2.2536
 Octapole moment (field-independent basis, Debye-Ang**2):
  XXX=             13.1704  YYY=           -106.5646  ZZZ=             22.7602  XYY=             -4.9011
  XXY=            -53.5611  XXZ=             14.3798  XZZ=              9.3501  YZZ=              8.9359
  YYZ=             24.1730  XYZ=             18.4509
 Hexadecapole moment (field-independent basis, Debye-Ang**3):
 XXXX=          -2475.9986 YYYY=          -2670.6413 ZZZZ=           -489.6180 XXXY=             -7.5136
 XXXZ=            -94.0723 YYYX=            165.2864 YYYZ=             59.5662 ZZZX=             36.8791
 ZZZY=             22.1729 XXYY=           -761.6213 XXZZ=           -573.2387 YYZZ=           -452.3785
 XXYZ=            -72.5270 YYXZ=            -11.8733 ZZXY=             -5.8153
 N-N= 1.681813138290D+03 E-N=-6.389464924722D+03  KE= 1.276743023167D+03
  Exact polarizability:       0.000       0.000       0.000       0.000       0.000       0.000
 Approx polarizability:     148.128      -2.716     141.784       0.716       0.360     140.095
   1 Symmetry operations used in ECPInt.
 ECPInt:  NShTT=   44551 NPrTT=  121227 LenC2=   39383 LenP2D=   79128.
 LDataN:  DoStor=T MaxTD1= 8 Len=  415
 Calling FoFJK, ICntrl=    100127 FMM=F ISym2X=0 I1Cent= 0 IOpClX= 0 NMat=1 NMatS=1 NMatT=0.
 -------------------------------------------------------------------
 Center     Atomic                   Forces (Hartrees/Bohr)
 Number     Number              X              Y              Z
 -------------------------------------------------------------------
      1       14          -0.000001115   -0.000000642   -0.000002021
      2        8          -0.000000233    0.000002158    0.000000727
      3        1           0.000001314    0.000000885   -0.000000473
      4        8           0.000000397    0.000000396    0.000000264
      5        1           0.000000718    0.000001613   -0.000000036
      6        8           0.000001872   -0.000001362    0.000000251
      7        1           0.000001071    0.000002394   -0.000000218
      8        8           0.000001307    0.000000262    0.000000340
      9        1           0.000000523    0.000000375    0.000000600
     10        6           0.000000750   -0.000000649   -0.000000298
     11        1          -0.000000521    0.000001017   -0.000000997
     12        6          -0.000002778    0.000001004   -0.000000370
     13        1           0.000000659    0.000000394   -0.000000283
     14        8           0.000001525    0.000001014    0.000004162
     15        1          -0.000001231   -0.000006165   -0.000000107
     16        8           0.000000739    0.000005605   -0.000001461
     17        1          -0.000000985    0.000000677   -0.000000578
     18        6          -0.000000438   -0.000000761   -0.000000328
     19        1           0.000000269   -0.000000590   -0.000000426
     20        6          -0.000000735    0.000000774    0.000001034
     21        1           0.000000297   -0.000001144    0.000000072
     22        6          -0.000000812    0.000000551   -0.000000117
     23        1          -0.000001156    0.000000156    0.000000601
     24        1          -0.000000882    0.000000142    0.000000123
     25        6           0.000001463   -0.000001034    0.000000228
     26        1           0.000000210   -0.000000690   -0.000000183
     27        1           0.000000640   -0.000000843   -0.000000544
     28        8          -0.000000347   -0.000000461    0.000000051
     29        1          -0.000000676   -0.000004445   -0.000000395
     30        8          -0.000000940   -0.000000799   -0.000000830
     31        1          -0.000000688    0.000000027    0.000000830
     32        8          -0.000001057    0.000000647    0.000001421
     33        1          -0.000001424   -0.000000314   -0.000000368
     34        8           0.000001596    0.000001847   -0.000000690
     35        1           0.000000670   -0.000002040    0.000000018
 -------------------------------------------------------------------
 Cartesian Forces:  Max     0.000006165 RMS     0.000001366
 IRC-IRC-IRC-IRC-IRC-IRC-IRC-IRC-IRC-IRC-IRC-IRC-IRC-IRC-IRC-IRC-IRC-IRC
          ******** Start new reaction path calculation ********
 Supplied step size of   0.1000 bohr.
    Integration on MW PES will use step size of   0.1091 sqrt(amu)*bohr.
 Point Number:   0          Path Number:   1
 Calculating another point on the path.
 IRC-IRC-IRC-IRC-IRC-IRC-IRC-IRC-IRC-IRC-IRC-IRC-IRC-IRC-IRC-IRC-IRC-IRC
                          Input orientation:                          
 ---------------------------------------------------------------------
 Center     Atomic      Atomic             Coordinates (Angstroms)
 Number     Number       Type             X           Y           Z
 ---------------------------------------------------------------------
      1         14           0        1.889366   -1.224950    0.043377
      2          8           0        2.001018   -2.726924   -0.612897
      3          1           0        1.199147   -3.240387   -0.658014
      4          8           0        3.785169   -1.128853    0.399836
      5          1           0        4.287232   -1.821375   -0.033846
      6          8           0        2.268443    0.073960   -0.805346
      7          1           0        3.530970   -0.336707   -0.293373
      8          8           0        1.403419   -1.190456    1.609796
      9          1           0        2.111024   -1.181185    2.249584
     10          6           0       -0.974545   -0.192533    0.121357
     11          1           0       -0.851470   -0.275717    1.197387
     12          6           0       -0.648999    1.240321   -0.365645
     13          1           0       -1.594801    1.762103   -0.504638
     14          8           0       -0.022206   -1.110396   -0.483079
     15          1           0        0.043367   -0.789001   -1.400171
     16          8           0       -0.003937    1.182062   -1.620921
     17          1           0        0.942720    0.952118   -1.454292
     18          6           0       -2.363185   -0.664521   -0.293960
     19          1           0       -2.421226   -0.660242   -1.393224
     20          6           0        0.142097    2.042480    0.670419
     21          1           0        0.983510    1.445041    1.038462
     22          6           0        0.728373    3.316201    0.064615
     23          1           0        1.040377    3.975131    0.878378
     24          1           0        1.629078    3.046594   -0.497152
     25          6           0       -2.660744   -2.070705    0.198096
     26          1           0       -1.962954   -2.786135   -0.244490
     27          1           0       -2.552664   -2.093735    1.287862
     28          8           0       -3.286313    0.243468    0.247671
     29          1           0       -4.155991   -0.148365    0.146185
     30          8           0       -0.781717    2.284158    1.715199
     31          1           0       -0.325256    2.704838    2.441643
     32          8           0       -0.169177    4.052915   -0.729012
     33          1           0       -0.305220    3.556664   -1.538020
     34          8           0       -3.994743   -2.353461   -0.187741
     35          1           0       -4.304497   -3.128866    0.275378
 ---------------------------------------------------------------------
                    Distance matrix (angstroms):
                    1          2          3          4          5
     1  Si   0.000000
     2  O    1.642890   0.000000
     3  H    2.242842   0.953246   0.000000
     4  O    1.931416   2.600510   3.502161   0.000000
     5  H    2.472134   2.526280   3.455351   0.959027   0.000000
     6  O    1.597246   2.820196   3.485684   2.280282   2.874547
     7  H    1.896638   2.855869   3.741887   1.082891   1.686276
     8  O    1.640428   2.767349   3.063806   2.672178   3.378757
     9  H    2.217746   3.255028   3.677766   2.495409   3.218660
    10  C    3.045317   3.976964   3.823843   4.858922   5.510309
    11  H    3.121693   4.173995   4.054234   4.781460   5.505566
    12  C    3.562044   4.777317   4.855705   5.085351   5.818114
    13  H    4.621929   5.752652   5.731891   6.174122   6.903715
    14  O    1.986048   2.592962   2.461538   3.908450   4.390735
    15  H    2.383609   2.864916   2.809967   4.166126   4.576355
    16  O    3.485425   4.507342   4.683231   4.876588   5.472986
    17  H    2.806916   3.919604   4.275151   3.980924   4.571181
    18  C    4.302566   4.837510   4.411103   6.204774   6.755296
    19  H    4.578638   4.943312   4.506083   6.477191   6.942590
    20  C    3.757956   5.277282   5.548944   4.837618   5.710299
    21  H    2.989920   4.600826   4.987762   3.857728   4.768008
    22  C    4.687260   6.212730   6.613068   5.405079   6.250589
    23  H    5.334683   6.932840   7.378984   5.814941   6.706243
    24  H    4.313468   5.786644   6.303718   4.784108   5.565749
    25  C    4.630631   4.777066   4.123086   6.517482   6.956316
    26  H    4.166598   3.981495   3.221216   6.016864   6.327713
    27  H    4.694163   4.974921   4.379193   6.472072   6.971748
    28  O    5.383831   6.125331   5.751249   7.205018   7.855024
    29  H    6.141331   6.718179   6.235771   8.005480   8.609261
    30  O    4.716302   6.186646   6.330605   5.851092   6.753429
    31  H    5.108764   6.651752   6.875855   5.980114   6.920238
    32  O    5.717520   7.119652   7.420890   6.615276   7.406086
    33  H    5.493710   6.757075   7.016939   6.514649   7.230246
    34  O    5.995807   6.022408   5.290018   7.897592   8.300477
    35  H    6.484032   6.380448   5.583346   8.334161   8.696146
                    6          7          8          9         10
     6  O    0.000000
     7  H    1.422933   0.000000
     8  O    2.860057   2.979499   0.000000
     9  H    3.306473   3.032494   0.954002   0.000000
    10  C    3.383307   4.526858   2.977585   3.876534   0.000000
    11  H    3.723852   4.629456   2.468067   3.271600   1.086236
    12  C    3.172570   4.468151   3.744792   4.507865   1.547973
    13  H    4.226690   5.542848   4.709327   5.475566   2.144105
    14  O    2.598774   3.641379   2.533563   3.467438   1.454223
    15  H    2.459569   3.686861   3.327282   4.213042   1.925349
    16  O    2.656456   4.069964   4.248179   5.003879   2.422214
    17  H    1.717508   3.115740   3.767162   4.431097   2.732911
    18  C    4.717928   5.903264   4.253022   5.172534   1.524331
    19  H    4.783058   6.061599   4.891540   5.838041   2.146065
    20  C    3.251815   4.251339   3.595169   4.094198   2.558054
    21  H    2.632592   3.382005   2.729211   3.104057   2.712325
    22  C    3.693342   4.618055   4.811780   5.187706   3.900559
    23  H    4.422918   5.115466   5.229729   5.441882   4.690672
    24  H    3.056195   3.886572   4.737378   5.064677   4.201589
    25  C    5.468396   6.448690   4.391486   5.269689   2.525210
    26  H    5.138036   6.015420   4.161373   5.039203   2.799566
    27  H    5.685375   6.526718   4.070644   4.848469   2.732355
    28  O    5.656225   6.863284   5.089706   5.930307   2.355912
    29  H    6.498321   7.701820   5.842529   6.690776   3.181849
    30  O    4.532283   5.431625   4.105955   4.545561   2.951526
    31  H    4.918509   5.621546   4.342074   4.590591   3.768297
    32  O    4.666894   5.757572   5.952816   6.439499   4.404040
    33  H    4.392013   5.605696   5.946709   6.529272   4.154275
    34  O    6.745466   7.791971   5.807226   6.677963   3.726493
    35  H    7.391183   8.337516   6.174011   6.989268   4.442337
                   11         12         13         14         15
    11  H    0.000000
    12  C    2.186879   0.000000
    13  H    2.757198   1.089090   0.000000
    14  O    2.051422   2.435679   3.274870   0.000000
    15  H    2.794907   2.380706   3.161282   0.973988   0.000000
    16  O    3.284249   1.412521   2.028148   2.559371   1.983950
    17  H    3.429009   1.949816   2.827885   2.475541   1.960424
    18  C    2.158835   2.563591   2.554076   2.390555   2.651545
    19  H    3.053401   2.794431   2.709302   2.605053   2.467964
    20  C    2.576609   1.530595   2.115700   3.361277   3.509185
    21  H    2.520599   2.162987   3.021486   3.139555   3.438276
    22  C    4.084232   2.528153   2.852439   4.523063   4.412201
    23  H    4.663750   3.446849   3.708692   5.370776   5.374269
    24  H    4.479100   2.910249   3.470356   4.472975   4.247554
    25  C    2.737523   3.915075   4.039862   2.889303   3.392556
    26  H    3.101064   4.237157   4.570523   2.575175   3.057689
    27  H    2.491472   4.180186   4.358674   3.241358   3.958185
    28  O    2.664577   2.885359   2.394459   3.608509   3.855923
    29  H    3.470029   3.806495   3.260851   4.290647   4.520645
    30  O    2.612653   2.331764   2.421017   4.114885   4.453156
    31  H    3.272428   3.182843   3.343810   4.816830   5.205990
    32  O    4.786814   2.876273   2.707502   5.171253   4.892829
    33  H    4.740041   2.618795   2.439538   4.793167   4.361802
    34  O    4.014445   4.913341   4.774726   4.172947   4.497094
    35  H    4.573178   5.732658   5.645569   4.794528   5.214054
                   16         17         18         19         20
    16  O    0.000000
    17  H    0.988331   0.000000
    18  C    3.276697   3.858615   0.000000
    19  H    3.047822   3.730894   1.100804   0.000000
    20  C    2.451914   2.518786   3.812391   4.258398   0.000000
    21  H    2.848952   2.541350   4.174443   4.683753   1.095612
    22  C    2.816356   2.818139   5.052965   5.278008   1.527443
    23  H    3.890800   3.819619   5.872392   6.215268   2.141329
    24  H    2.721410   2.402922   5.454524   5.563141   2.140696
    25  C    4.576891   4.985258   1.519214   2.139877   4.999730
    26  H    4.634532   4.886829   2.159601   2.459476   5.346384
    27  H    5.068320   5.386496   2.140260   3.043090   4.975063
    28  O    3.891861   4.613413   1.403557   2.063396   3.894760
    29  H    4.704492   5.456138   1.916845   2.375122   4.852647
    30  O    3.598507   3.846256   3.902879   4.584732   1.415417
    31  H    4.350462   4.456243   4.794712   5.515710   1.947915
    32  O    3.010748   3.373023   5.220837   5.265619   2.469239
    33  H    2.395074   2.889294   4.858118   4.720248   2.714783
    34  O    5.520911   6.075323   2.350698   2.606940   6.097064
    35  H    6.377685   6.868732   3.188390   3.524918   6.831624
                   21         22         23         24         25
    21  H    0.000000
    22  C    2.124785   0.000000
    23  H    2.535787   1.092587   0.000000
    24  H    2.310810   1.095234   1.760918   0.000000
    25  C    5.132959   6.365743   7.121320   6.713619   0.000000
    26  H    5.313235   6.676622   7.483017   6.854725   1.092993
    27  H    5.008958   6.444295   7.064613   6.862669   1.095354
    28  O    4.505609   5.058943   5.748334   5.707306   2.397747
    29  H    5.454317   5.988896   6.673946   6.639929   2.435949
    30  O    2.068361   2.463719   2.622915   3.359723   4.979675
    31  H    2.295403   2.670984   2.433596   3.545805   5.770079
    32  O    3.354647   1.406480   2.013150   2.073682   6.675788
    33  H    3.571839   1.922128   2.797272   2.255013   6.342702
    34  O    6.380846   7.383534   8.157213   7.802800   1.417172
    35  H    7.033203   8.180042   8.910559   8.598862   1.956426
                   26         27         28         29         30
    26  H    0.000000
    27  H    1.781931   0.000000
    28  O    3.342453   2.661344   0.000000
    29  H    3.452516   2.767408   0.959256   0.000000
    30  O    5.562694   4.741816   3.548387   4.445750   0.000000
    31  H    6.328361   5.414690   4.431672   5.299474   0.955536
    32  O    7.086959   6.894207   5.018200   5.857593   3.078615
    33  H    6.682244   6.705491   4.801340   5.602875   3.525585
    34  O    2.078123   2.079532   2.726811   2.236058   5.954177
    35  H    2.422922   2.272782   3.522798   2.986994   6.616940
                   31         32         33         34         35
    31  H    0.000000
    32  O    3.448872   0.000000
    33  H    4.069855   0.958784   0.000000
    34  O    6.779763   7.481282   7.096859   0.000000
    35  H    7.386418   8.347912   7.998683   0.954819   0.000000
 Symmetry turned off by external request.
 Stoichiometry    C6H18O10Si
 Framework group  C1[X(C6H18O10Si)]
 Deg. of freedom    99
 Full point group                 C1      NOp   1
 Rotational constants (GHZ):           0.4122574           0.3563536           0.2247565
 Standard basis: def2TZVPP (5D, 7F)
   790 basis functions,  1191 primitive gaussians,   894 cartesian basis functions
    74 alpha electrons       74 beta electrons
       nuclear repulsion energy      1681.7768503398 Hartrees.
 NAtoms=   35 NActive=   35 NUniq=   35 SFac= 1.00D+00 NAtFMM=   60 NAOKFM=F Big=F
 Integral buffers will be    131072 words long.
 Raffenetti 2 integral format.
 Two-electron integral symmetry is turned off.
 Nuclear repulsion after empirical dispersion term =     1681.7490678263 Hartrees.
 One-electron integrals computed using PRISM.
   1 Symmetry operations used in ECPInt.
 ECPInt:  NShTT=   44551 NPrTT=  121227 LenC2=   39377 LenP2D=   79114.
 LDataN:  DoStor=T MaxTD1= 6 Len=  172
 NBasis=   790 RedAO= T EigKep=  3.84D-05  NBF=   790
 NBsUse=   790 1.00D-06 EigRej= -1.00D+00 NBFU=   790
 Initial guess from the checkpoint file:  "Convert_toMannSiCenteredSN2_IRC_reverse.chk"
 B after Tr=    -0.016827    0.006011    0.009478
         Rot=    1.000000    0.000009    0.000034    0.000013 Ang=   0.00 deg.
 ExpMin= 7.01D-02 ExpMax= 4.48D+04 ExpMxC= 1.53D+03 IAcc=3 IRadAn=         5 AccDes= 0.00D+00
 Harris functional with IExCor= 4639 and IRadAn=       5 diagonalized for initial guess.
 HarFok:  IExCor= 4639 AccDes= 0.00D+00 IRadAn=         5 IDoV= 1 UseB2=F ITyADJ=14
 ICtDFT=  3500011 ScaDFX=  1.000000  1.000000  1.000000  1.000000
 FoFCou: FMM=F IPFlag=           0 FMFlag=      100000 FMFlg1=           0
         NFxFlg=           0 DoJE=T BraDBF=F KetDBF=T FulRan=T
         wScrn=  0.000000 ICntrl=       500 IOpCl=  0 I1Cent=   200000004 NGrid=           0
         NMat0=    1 NMatS0=      1 NMatT0=    0 NMatD0=    1 NMtDS0=    0 NMtDT0=    0
 Symmetry not used in FoFCou.
 Requested convergence on RMS density matrix=1.00D-08 within 128 cycles.
 Requested convergence on MAX density matrix=1.00D-06.
 Requested convergence on             energy=1.00D-06.
 No special actions if energy rises.
 Integral accuracy reduced to 1.0D-05 until final iterations.
 Initial convergence to 1.0D-05 achieved.  Increase integral accuracy.
 SCF Done:  E(RwB97XD) =  -1281.48961822     A.U. after   11 cycles
            NFock= 11  Conv=0.78D-08     -V/T= 2.0037
 DoSCS=F DFT=T ScalE2(SS,OS)=  1.000000  1.000000
 Range of M.O.s used for correlation:     1   790
 NBasis=   790 NAE=    74 NBE=    74 NFC=     0 NFV=     0
 NROrb=    790 NOA=    74 NOB=    74 NVA=   716 NVB=   716

 **** Warning!!: The largest alpha MO coefficient is  0.21980452D+02

 Symmetrizing basis deriv contribution to polar:
 IMax=3 JMax=2 DiffMx= 0.00D+00
   1 Symmetry operations used in ECPInt.
 ECPInt:  NShTT=   44551 NPrTT=  121227 LenC2=   39377 LenP2D=   79114.
 LDataN:  DoStor=T MaxTD1= 7 Len=  274
 Calling FoFJK, ICntrl=      2127 FMM=F ISym2X=0 I1Cent= 0 IOpClX= 0 NMat=1 NMatS=1 NMatT=0.
 -------------------------------------------------------------------
 Center     Atomic                   Forces (Hartrees/Bohr)
 Number     Number              X              Y              Z
 -------------------------------------------------------------------
      1       14          -0.003632320    0.003519332   -0.002941244
      2        8           0.000709002    0.000151804    0.000575859
      3        1           0.000044679    0.000003566    0.000082321
      4        8           0.003611780   -0.001948850    0.001691502
      5        1           0.000150407   -0.000088576    0.000028478
      6        8          -0.003667304   -0.000465273   -0.000310685
      7        1           0.002681034   -0.000020004    0.000464765
      8        8           0.000603221   -0.000470396   -0.000039519
      9        1          -0.000094512    0.000042970    0.000126316
     10        6          -0.000008871   -0.000029087   -0.000001321
     11        1          -0.000017243    0.000007391    0.000003619
     12        6           0.000066035    0.000000315   -0.000161212
     13        1          -0.000002376   -0.000003807    0.000012972
     14        8          -0.000637197   -0.000459861    0.000079578
     15        1           0.000112358    0.000104051    0.000058969
     16        8           0.000175077   -0.000015581    0.000155910
     17        1           0.000017323   -0.000288584    0.000128015
     18        6           0.000013082    0.000030860    0.000014275
     19        1           0.000005586    0.000002977    0.000002199
     20        6           0.000010835   -0.000027551   -0.000039596
     21        1           0.000004612   -0.000001806   -0.000022688
     22        6           0.000003517   -0.000032958    0.000019497
     23        1          -0.000005324    0.000002846    0.000002762
     24        1          -0.000010440   -0.000023558   -0.000001437
     25        6           0.000001624    0.000027834   -0.000005739
     26        1          -0.000000346    0.000003555   -0.000002739
     27        1          -0.000002965    0.000000303   -0.000000036
     28        8          -0.000063949   -0.000011812    0.000030188
     29        1          -0.000003452   -0.000003378   -0.000008263
     30        8          -0.000038982    0.000020484    0.000081314
     31        1           0.000002379    0.000014024   -0.000005538
     32        8          -0.000001691    0.000016877   -0.000031856
     33        1           0.000004547   -0.000028954    0.000013019
[...]
 Magnitude of difference =             0.0032624034
 Angle between gradients (degrees)=   53.3690
 Pt 28 Step number  99 out of a maximum of 100
 Modified Bulirsch-Stoer Extrapolation Cycles:
    EPS =    0.000010000000000
      PEZero:  N= 2 I= 1 D=  5.68D-04 Err=  2.72D-05
      PEZero:  N= 3 I= 2 D=  5.68D-04 Err=  1.81D-05
      PEZero:  N= 3 I= 1 D=  1.14D-03 Err=  1.13D-06
 Maximum DWI energy   std dev =  0.000002904 at pt    73
 Maximum DWI gradient std dev =  0.934284486 at pt    35
 CORRECTOR INTEGRATION CONVERGENCE:
   Recorrection delta-x convergence threshold:    0.010000
   Delta-x Convergence NOT Met
 IRC-IRC-IRC-IRC-IRC-IRC-IRC-IRC-IRC-IRC-IRC-IRC-IRC-IRC-IRC-IRC-IRC-IRC
                          Input orientation:                          
 ---------------------------------------------------------------------
 Center     Atomic      Atomic             Coordinates (Angstroms)
 Number     Number       Type             X           Y           Z
 ---------------------------------------------------------------------
      1         14           0        1.819119   -1.171015   -0.012628
      2          8           0        2.030388   -2.676050   -0.638894
      3          1           0        1.410446   -3.342767   -0.358955
      4          8           0        3.983383   -1.228807    0.519703
      5          1           0        4.357061   -1.983803    0.061345
      6          8           0        2.255899    0.081491   -0.823927
      7          1           0        4.012495   -0.480737   -0.100117
      8          8           0        1.434763   -1.190947    1.581442
      9          1           0        2.179907   -1.140717    2.175499
     10          6           0       -0.999091   -0.188479    0.129605
     11          1           0       -0.872844   -0.272444    1.205393
     12          6           0       -0.659785    1.238599   -0.365633
     13          1           0       -1.602245    1.766345   -0.507168
     14          8           0       -0.056246   -1.120424   -0.477469
     15          1           0       -0.016182   -0.821540   -1.404973
     16          8           0       -0.013288    1.166547   -1.616750
     17          1           0        0.933537    0.915548   -1.445819
     18          6           0       -2.387232   -0.659362   -0.285467
     19          1           0       -2.445823   -0.650700   -1.384792
     20          6           0        0.134002    2.039041    0.670400
     21          1           0        0.973650    1.440301    1.040027
     22          6           0        0.726699    3.307508    0.061114
     23          1           0        1.041794    3.967986    0.872584
     24          1           0        1.625191    3.029018   -0.499340
     25          6           0       -2.680847   -2.068872    0.200523
     26          1           0       -1.980228   -2.779746   -0.244476
     27          1           0       -2.574229   -2.095399    1.290511
     28          8           0       -3.309256    0.246265    0.259960
     29          1           0       -4.179850   -0.142114    0.153283
     30          8           0       -0.789427    2.285714    1.715004
     31          1           0       -0.335143    2.722168    2.433481
     32          8           0       -0.167229    4.045596   -0.735814
     33          1           0       -0.299016    3.549236   -1.545537
     34          8           0       -4.013090   -2.354148   -0.188030
     35          1           0       -4.318644   -3.136757    0.265665
 ---------------------------------------------------------------------
                    Distance matrix (angstroms):
                    1          2          3          4          5
     1  Si   0.000000
     2  O    1.643768   0.000000
     3  H    2.236842   0.952473   0.000000
     4  O    2.229519   2.692777   3.443962   0.000000
     5  H    2.665942   2.526450   3.271999   0.959034   0.000000
     6  O    1.554913   2.772927   3.557602   2.550770   3.076366
     7  H    2.301095   3.006398   3.876709   0.971924   1.550485
     8  O    1.639874   2.736821   2.897596   2.761193   3.388088
     9  H    2.217879   3.209425   3.444496   2.449887   3.149673
    10  C    2.987961   3.994539   3.999261   5.104851   5.649443
    11  H    3.088312   4.196125   4.133701   4.996773   5.620454
    12  C    3.475028   4.757750   5.027407   5.332066   5.977871
    13  H    4.536341   5.740056   5.933069   6.420642   7.064004
    14  O    1.932778   2.607694   2.665340   4.162295   4.529130
    15  H    2.330040   2.866101   3.079936   4.457215   4.756700
    16  O    3.375666   4.460758   4.893156   5.125967   5.642753
    17  H    2.681798   3.841066   4.420630   4.214630   4.732684
    18  C    4.246130   4.869015   4.650637   6.446496   6.881854
    19  H    4.510354   4.969393   4.813562   6.730231   7.081504
    20  C    3.689255   5.248105   5.626077   5.051661   5.864166
    21  H    2.939706   4.569444   5.002568   4.056275   4.912207
    22  C    4.610422   6.163812   6.698517   5.603076   6.416970
    23  H    5.272302   6.885136   7.422918   5.981984   6.860969
    24  H    4.232584   5.721141   6.376948   4.972785   5.736362
    25  C    4.593612   4.823797   4.321400   6.724548   7.039798
    26  H    4.132410   4.031298   3.439007   6.209190   6.394395
    27  H    4.674844   5.026157   4.489354   6.659385   7.040319
    28  O    5.327590   6.153021   5.961526   7.444857   7.986556
    29  H    6.088825   6.753919   6.462041   8.243394   8.733792
    30  O    4.662425   6.173435   6.389096   6.046514   6.888375
    31  H    5.077516   6.646501   6.901320   6.158118   7.056201
    32  O    5.628642   7.072442   7.564324   6.828121   7.580127
    33  H    5.396024   6.708376   7.199302   6.740465   7.407810
    34  O    5.953590   6.068816   5.515553   8.106224   8.382050
    35  H    6.450870   6.429672   5.766720   8.522233   8.754365
                    6          7          8          9         10
     6  O    0.000000
     7  H    1.981320   0.000000
     8  O    2.842387   3.158598   0.000000
     9  H    3.239772   2.995394   0.954288   0.000000
    10  C    3.402509   5.025353   3.006064   3.898521   0.000000
    11  H    3.745990   5.061055   2.511993   3.318779   1.086420
    12  C    3.170197   4.985661   3.752457   4.492477   1.548206
    13  H    4.221889   6.061384   4.725599   5.472877   2.142571
    14  O    2.628811   4.135970   2.543068   3.469730   1.458087
    15  H    2.513053   4.248416   3.340715   4.212417   1.929198
    16  O    2.637257   4.606588   4.228837   4.951235   2.420259
    17  H    1.682570   3.638751   3.721943   4.346908   2.726882
    18  C    4.732597   6.404902   4.286675   5.210261   1.523468
    19  H    4.791332   6.587044   4.914200   5.857744   2.144780
    20  C    3.250763   4.688889   3.599278   4.069632   2.556991
    21  H    2.639101   3.771590   2.725660   3.066921   2.715419
    22  C    3.678170   5.017295   4.800922   5.135089   3.899354
    23  H    4.411014   5.437126   5.222212   5.393675   4.689715
    24  H    3.031677   4.263446   4.708930   4.984893   4.199370
    25  C    5.481333   6.885738   4.428988   5.328126   2.523729
    26  H    5.144630   6.420204   4.185741   5.084232   2.795931
    27  H    5.704370   6.922855   4.120036   4.929141   2.732235
    28  O    5.672117   7.366561   5.130069   5.976949   2.354328
    29  H    6.513356   8.203255   5.887577   6.747820   3.181185
    30  O    4.536385   5.831498   4.129411   4.557349   2.946028
    31  H    4.929237   5.964870   4.378471   4.616699   3.771013
    32  O    4.646875   6.193698   5.946212   6.393953   4.400947
    33  H    4.367330   6.076105   5.937451   6.479724   4.155324
    34  O    6.755511   8.241809   5.844927   6.738835   3.724944
    35  H    7.400604   8.751921   6.214429   7.061360   4.441879
                   11         12         13         14         15
    11  H    0.000000
    12  C    2.190153   0.000000
    13  H    2.760716   1.089393   0.000000
    14  O    2.053759   2.437572   3.274818   0.000000
    15  H    2.801676   2.395544   3.165249   0.975295   0.000000
    16  O    3.282380   1.410122   2.028722   2.555394   1.999337
    17  H    3.421003   1.951882   2.834628   2.462226   1.980180
    18  C    2.160033   2.567636   2.559182   2.383892   2.627066
    19  H    3.053915   2.792502   2.706281   2.598837   2.435723
    20  C    2.577386   1.531068   2.115558   3.366900   3.537323
    21  H    2.523962   2.164411   3.022475   3.149729   3.474726
    22  C    4.084601   2.526823   2.849931   4.528759   4.444134
    23  H    4.664531   3.446463   3.707005   5.377755   5.407970
    24  H    4.477270   2.905958   3.465653   4.477228   4.282648
    25  C    2.739669   3.917217   4.046368   2.871891   3.351700
    26  H    3.100803   4.231471   4.569335   2.551342   3.006460
    27  H    2.495019   4.186102   4.369149   3.227471   3.928353
    28  O    2.664396   2.897548   2.411019   3.604680   3.841425
    29  H    3.472781   3.816608   3.274517   4.284746   4.497323
    30  O    2.609758   2.332875   2.422492   4.116585   4.470704
    31  H    3.281010   3.184558   3.341641   4.828760   5.233864
    32  O    4.786612   2.873827   2.703061   5.173667   4.915243
    33  H    4.743641   2.619422   2.440352   4.796398   4.382173
    34  O    4.016997   4.917726   4.784609   4.154813   4.450293
    35  H    4.578309   5.738425   5.658312   4.773456   5.163568
                   16         17         18         19         20
    16  O    0.000000
    17  H    0.994332   0.000000
    18  C    3.277479   3.854124   0.000000
    19  H    3.045228   3.725176   1.100919   0.000000
    20  C    2.452345   2.525842   3.814667   4.256057   0.000000
    21  H    2.847359   2.540946   4.178642   4.684531   1.095501
    22  C    2.818958   2.834625   5.054972   5.274747   1.526934
    23  H    3.893334   3.834591   5.874662   6.212205   2.141447
    24  H    2.720665   2.416808   5.454303   5.558552   2.138221
    25  C    4.570151   4.967995   1.519577   2.140017   5.001910
    26  H    4.617923   4.856795   2.159482   2.459662   5.341131
    27  H    5.064669   5.371939   2.140298   3.043171   4.981229
    28  O    3.902866   4.621571   1.402776   2.062832   3.903656
    29  H    4.712308   5.460999   1.916644   2.373012   4.861499
    30  O    3.599377   3.851852   3.902351   4.579838   1.415898
    31  H    4.350623   4.463451   4.799843   5.514565   1.948131
    32  O    3.014743   3.393080   5.221864   5.260073   2.468693
    33  H    2.400817   2.909543   4.864228   4.719543   2.716353
    34  O    5.516788   6.061524   2.350576   2.605821   6.102080
    35  H    6.371655   6.850968   3.189292   3.523059   6.839499
                   21         22         23         24         25
    21  H    0.000000
    22  C    2.122668   0.000000
    23  H    2.534141   1.092703   0.000000
    24  H    2.306117   1.094968   1.761871   0.000000
    25  C    5.135602   6.366809   7.124140   6.709713   0.000000
    26  H    5.308874   6.668995   7.477455   6.841472   1.092809
    27  H    5.015114   6.449724   7.072123   6.862823   1.095511
    28  O    4.514146   5.069485   5.758311   5.715681   2.399644
    29  H    5.463416   5.998550   6.684002   6.646841   2.441646
    30  O    2.068516   2.465371   2.625468   3.359494   4.983326
    31  H    2.301703   2.664256   2.425782   3.540975   5.782948
    32  O    3.353026   1.406760   2.013630   2.074156   6.676955
    33  H    3.571054   1.921419   2.796504   2.251162   6.347045
    34  O    6.385417   7.387965   8.163709   7.801641   1.416767
    35  H    7.039707   8.186933   8.920763   8.598324   1.956272
                   26         27         28         29         30
    26  H    0.000000
    27  H    1.782513   0.000000
    28  O    3.343279   2.661896   0.000000
    29  H    3.457405   2.772476   0.959246   0.000000
    30  O    5.560257   4.749723   3.553314   4.452897   0.000000
    31  H    6.336309   5.434044   4.438427   5.308972   0.955550
    32  O    7.079102   6.900106   5.029793   5.867584   3.080718
    33  H    6.676470   6.714288   4.819852   5.618979   3.531022
    34  O    2.077702   2.079267   2.730976   2.244415   5.961700
    35  H    2.419894   2.275460   3.530401   2.999963   6.630169
                   31         32         33         34         35
    31  H    0.000000
    32  O    3.438618   0.000000
    33  H    4.064226   0.958850   0.000000
    34  O    6.794748   7.486484   7.105429   0.000000
    35  H    7.409096   8.356040   8.008767   0.954818   0.000000
 Symmetry turned off by external request.
 Stoichiometry    C6H18O10Si
 Framework group  C1[X(C6H18O10Si)]
 Deg. of freedom    99
 Full point group                 C1      NOp   1
 Rotational constants (GHZ):           0.4141296           0.3477260           0.2219154
 Standard basis: def2TZVPP (5D, 7F)
   790 basis functions,  1191 primitive gaussians,   894 cartesian basis functions
    74 alpha electrons       74 beta electrons
       nuclear repulsion energy      1673.5680340274 Hartrees.
 NAtoms=   35 NActive=   35 NUniq=   35 SFac= 1.00D+00 NAtFMM=   60 NAOKFM=F Big=F
 Integral buffers will be    131072 words long.
 Raffenetti 2 integral format.
 Two-electron integral symmetry is turned off.
 Nuclear repulsion after empirical dispersion term =     1673.5404238496 Hartrees.
 One-electron integrals computed using PRISM.
   1 Symmetry operations used in ECPInt.
 ECPInt:  NShTT=   44551 NPrTT=  121227 LenC2=   39232 LenP2D=   78753.
 LDataN:  DoStor=T MaxTD1= 6 Len=  172
 NBasis=   790 RedAO= T EigKep=  3.78D-05  NBF=   790
 NBsUse=   790 1.00D-06 EigRej= -1.00D+00 NBFU=   790
 Initial guess from the checkpoint file:  "Convert_toMannSiCenteredSN2_IRC_reverse.chk"
 B after Tr=     0.000065   -0.000054    0.000083
         Rot=    1.000000    0.000013    0.000014    0.000003 Ang=   0.00 deg.
 ExpMin= 7.01D-02 ExpMax= 4.48D+04 ExpMxC= 1.53D+03 IAcc=3 IRadAn=         5 AccDes= 0.00D+00
 Harris functional with IExCor= 4639 and IRadAn=       5 diagonalized for initial guess.
 HarFok:  IExCor= 4639 AccDes= 0.00D+00 IRadAn=         5 IDoV= 1 UseB2=F ITyADJ=14
 ICtDFT=  3500011 ScaDFX=  1.000000  1.000000  1.000000  1.000000
 FoFCou: FMM=F IPFlag=           0 FMFlag=      100000 FMFlg1=           0
         NFxFlg=           0 DoJE=T BraDBF=F KetDBF=T FulRan=T
         wScrn=  0.000000 ICntrl=       500 IOpCl=  0 I1Cent=   200000004 NGrid=           0
         NMat0=    1 NMatS0=      1 NMatT0=    0 NMatD0=    1 NMtDS0=    0 NMtDT0=    0
 Symmetry not used in FoFCou.
 Requested convergence on RMS density matrix=1.00D-08 within 128 cycles.
 Requested convergence on MAX density matrix=1.00D-06.
 Requested convergence on             energy=1.00D-06.
 No special actions if energy rises.
 Integral accuracy reduced to 1.0D-05 until final iterations.
 Initial convergence to 1.0D-05 achieved.  Increase integral accuracy.
 SCF Done:  E(RwB97XD) =  -1281.49604169     A.U. after   10 cycles
            NFock= 10  Conv=0.47D-08     -V/T= 2.0037
 DoSCS=F DFT=T ScalE2(SS,OS)=  1.000000  1.000000
 Range of M.O.s used for correlation:     1   790
 NBasis=   790 NAE=    74 NBE=    74 NFC=     0 NFV=     0
 NROrb=    790 NOA=    74 NOB=    74 NVA=   716 NVB=   716

 **** Warning!!: The largest alpha MO coefficient is  0.19097050D+02

 Symmetrizing basis deriv contribution to polar:
 IMax=3 JMax=2 DiffMx= 0.00D+00
   1 Symmetry operations used in ECPInt.
 ECPInt:  NShTT=   44551 NPrTT=  121227 LenC2=   39232 LenP2D=   78753.
 LDataN:  DoStor=T MaxTD1= 7 Len=  274
 Calling FoFJK, ICntrl=      2127 FMM=F ISym2X=0 I1Cent= 0 IOpClX= 0 NMat=1 NMatS=1 NMatT=0.
 -------------------------------------------------------------------
 Center     Atomic                   Forces (Hartrees/Bohr)
 Number     Number              X              Y              Z
 -------------------------------------------------------------------
      1       14          -0.001080431   -0.000106596   -0.000570635
      2        8           0.000813707    0.001646484   -0.001384216
      3        1          -0.000829902   -0.001331748    0.000801977
      4        8           0.001751986   -0.000039948    0.001361934
      5        1           0.000085154   -0.000005244   -0.000031807
      6        8           0.000399950   -0.000289883   -0.000005916
      7        1          -0.000066446    0.000252660   -0.000146511
      8        8           0.000313836   -0.000364915   -0.000128254
      9        1          -0.000043986   -0.000018952   -0.000054004
     10        6          -0.000153008    0.000080243    0.000057452
     11        1           0.000001696    0.000003718    0.000000372
     12        6          -0.000093093    0.000026990   -0.000013588
     13        1           0.000002618    0.000001259   -0.000001500
     14        8          -0.000182194    0.000061952    0.000131982
     15        1          -0.000002424   -0.000015805    0.000017828
     16        8          -0.000106418   -0.000092383   -0.000013476
     17        1          -0.000007950    0.000004103   -0.000004605
     18        6          -0.000153393    0.000048046    0.000065589
     19        1           0.000001775    0.000001138   -0.000001389
     20        6          -0.000054606   -0.000002487   -0.000032244
     21        1           0.000002012    0.000000425   -0.000002427
     22        6          -0.000004164   -0.000041242   -0.000057347
     23        1           0.000001979    0.000002599   -0.000000267
     24        1          -0.000000811    0.000003163   -0.000001571
     25        6          -0.000161298    0.000026754    0.000017533
     26        1           0.000001365   -0.000002421   -0.000002557
     27        1           0.000002616   -0.000000233   -0.000001475
     28        8          -0.000182416    0.000052781    0.000146237
     29        1           0.000005861    0.000001234    0.000004226
     30        8          -0.000059356    0.000035407   -0.000049387
     31        1           0.000000118   -0.000000863   -0.000002263
     32        8           0.000020364   -0.000050502   -0.000097597
     33        1           0.000002015    0.000006064    0.000000511
     34        8          -0.000226572    0.000103069    0.000004525
     35        1           0.000001416    0.000005133   -0.000007131
 -------------------------------------------------------------------
 Cartesian Forces:  Max     0.001751986 RMS     0.000387220
 IRC-IRC-IRC-IRC-IRC-IRC-IRC-IRC-IRC-IRC-IRC-IRC-IRC-IRC-IRC-IRC-IRC-IRC
 Error in corrector energy =          -0.0000077226
 Magnitude of corrector gradient =     0.0028123160
 Magnitude of analytic gradient =      0.0039678251
 Magnitude of difference =             0.0025750861
 Angle between gradients (degrees)=   40.2968
 Pt 28 Step number 100 out of a maximum of 100
 Modified Bulirsch-Stoer Extrapolation Cycles:
    EPS =    0.000010000000000
      PEZero:  N= 2 I= 1 D=  5.68D-04 Err=  1.32D-04
      PEZero:  N= 3 I= 2 D=  5.68D-04 Err=  8.66D-05
      PEZero:  N= 3 I= 1 D=  1.14D-03 Err=  1.89D-06
 Maximum DWI energy   std dev =  0.000002031 at pt    -1
 Maximum DWI gradient std dev =  0.645753506 at pt    54
 CORRECTOR INTEGRATION CONVERGENCE:
   Recorrection delta-x convergence threshold:    0.010000
   Delta-x Convergence NOT Met
 Maximum number of corrector steps exceded.
 Error termination via Lnk1e in /opt/software/gaussian/g16.c01/l123.exe at Fri Feb 23 14:40:54 2024.
 Job cpu time:      18 days 13 hours 34 minutes  2.8 seconds.
 Elapsed time:       4 days 19 hours 24 minutes 35.6 seconds.
 File lengths (MBytes):  RWF=   1463 Int=      0 D2E=      0 Chk=     46 Scr=      1
