 Entering Gaussian System, Link 0=/opt/software/gaussian/g16.c01/g16
 Initial command:
 /opt/software/gaussian/g16.c01/l1.exe "/scratch/arhender/25191864/Gau-8636.inp" -scrdir="/scratch/arhender/25191864/"
 Entering Link 1 = /opt/software/gaussian/g16.c01/l1.exe PID=      8637.
  
 Copyright (c) 1988-2019, Gaussian, Inc.  All Rights Reserved.
  
 This is part of the Gaussian(R) 16 program.  It is based on
 the Gaussian(R) 09 system (copyright 2009, Gaussian, Inc.),
 the Gaussian(R) 03 system (copyright 2003, Gaussian, Inc.),
 the Gaussian(R) 98 system (copyright 1998, Gaussian, Inc.),
 the Gaussian(R) 94 system (copyright 1995, Gaussian, Inc.),
 the Gaussian 92(TM) system (copyright 1992, Gaussian, Inc.),
 the Gaussian 90(TM) system (copyright 1990, Gaussian, Inc.),
 the Gaussian 88(TM) system (copyright 1988, Gaussian, Inc.),
 the Gaussian 86(TM) system (copyright 1986, Carnegie Mellon
 University), and the Gaussian 82(TM) system (copyright 1983,
 Carnegie Mellon University). Gaussian is a federally registered
 trademark of Gaussian, Inc.
  
 This software contains proprietary and confidential information,
 including trade secrets, belonging to Gaussian, Inc.
  
 This software is provided under written license and may be
 used, copied, transmitted, or stored only in accord with that
 written license.
  
 The following legend is applicable only to US Government
 contracts under FAR:
  
                    RESTRICTED RIGHTS LEGEND
  
 Use, reproduction and disclosure by the US Government is
 subject to restrictions as set forth in subparagraphs (a)
 and (c) of the Commercial Computer Software - Restricted
 Rights clause in FAR 52.227-19.
  
 Gaussian, Inc.
 340 Quinnipiac St., Bldg. 40, Wallingford CT 06492
  
  
 ---------------------------------------------------------------
 Warning -- This program may not be used in any manner that
 competes with the business of Gaussian, Inc. or will provide
 assistance to any competitor of Gaussian, Inc.  The licensee
 of this program is prohibited from giving any competitor of
 Gaussian, Inc. access to this program.  By using this program,
 the user acknowledges that Gaussian, Inc. is engaged in the
 business of creating and licensing software in the field of
 computational chemistry and represents and warrants to the
 licensee that it is not a competitor of Gaussian, Inc. and that
 it will not use this program in any manner prohibited above.
 ---------------------------------------------------------------
  

 Cite this work as:
 Gaussian 16, Revision C.01,
 M. J. Frisch, G. W. Trucks, H. B. Schlegel, G. E. Scuseria, 
 M. A. Robb, J. R. Cheeseman, G. Scalmani, V. Barone, 
 G. A. Petersson, H. Nakatsuji, X. Li, M. Caricato, A. V. Marenich, 
 J. Bloino, B. G. Janesko, R. Gomperts, B. Mennucci, H. P. Hratchian, 
 J. V. Ortiz, A. F. Izmaylov, J. L. Sonnenberg, D. Williams-Young, 
 F. Ding, F. Lipparini, F. Egidi, J. Goings, B. Peng, A. Petrone, 
 T. Henderson, D. Ranasinghe, V. G. Zakrzewski, J. Gao, N. Rega, 
 G. Zheng, W. Liang, M. Hada, M. Ehara, K. Toyota, R. Fukuda, 
 J. Hasegawa, M. Ishida, T. Nakajima, Y. Honda, O. Kitao, H. Nakai, 
 T. Vreven, K. Throssell, J. A. Montgomery, Jr., J. E. Peralta, 
 F. Ogliaro, M. J. Bearpark, J. J. Heyd, E. N. Brothers, K. N. Kudin, 
 V. N. Staroverov, T. A. Keith, R. Kobayashi, J. Normand, 
 K. Raghavachari, A. P. Rendell, J. C. Burant, S. S. Iyengar, 
 J. Tomasi, M. Cossi, J. M. Millam, M. Klene, C. Adamo, R. Cammi, 
 J. W. Ochterski, R. L. Martin, K. Morokuma, O. Farkas, 
 J. B. Foresman, and D. J. Fox, Gaussian, Inc., Wallingford CT, 2019.
 
 ******************************************
 Gaussian 16:  ES64L-G16RevC.01  3-Jul-2019
                14-Feb-2024 
 ******************************************
 %chk=PmonoL_HbiL_mannitol_IRC_forward_productOpt.chk
 %mem=1600MB
 %nprocs=4
 Will use up to    4 processors via shared memory.
 ---------------------------------------------
 # opt freq wb97xd/def2tzvpp geom=connectivity
 ---------------------------------------------
 1/18=20,19=15,26=3,38=1,57=2/1,3;
 2/9=110,12=2,17=6,18=5,40=1/2;
 3/5=44,7=202,11=2,25=1,30=1,71=1,74=-58/1,2,3;
 4//1;
 5/5=2,38=5/2;
 6/7=2,8=2,9=2,10=2,28=1/1;
 7//1,2,3,16;
 1/18=20,19=15,26=3/3(2);
 2/9=110/2;
 99//99;
 2/9=110/2;
 3/5=44,7=202,11=2,25=1,30=1,71=1,74=-58/1,2,3;
 4/5=5,16=3,69=1/1;
 5/5=2,38=5/2;
 7//1,2,3,16;
 1/18=20,19=15,26=3/3(-5);
 2/9=110/2;
 6/7=2,8=2,9=2,10=2,19=2,28=1/1;
 99/9=1/99;
 ------------------------------------------
 IRC product opt mannitol PL1HL1 transition
 ------------------------------------------
 Symbolic Z-matrix:
 Charge = -2 Multiplicity = 1
 Si                   -1.95089  -0.46222   0.08394 
 O                    -1.83921  -1.44428   1.55296 
 O                    -1.94985   0.82265  -1.15228 
 O                    -2.7423   -1.69519  -0.86434 
 O                    -0.34458  -1.02603  -0.55431 
 O                    -0.63103   0.78989   1.20059 
 O                    -3.43753   0.26794   0.6714 
 C                     0.6685    0.59258   0.8255 
 H                     1.37431   0.69365   1.68047 
 C                     0.74432  -0.85238   0.27729 
 H                    -3.67906  -0.28577   1.41498 
 H                    -1.35016  -0.86183   2.13569 
 H                    -2.03922  -2.22827  -1.22658 
 H                    -2.85741   1.1244   -1.12999 
 C                     1.14211   1.63456  -0.2156 
 H                     0.89392   1.27532  -1.2193 
 O                     2.5864    1.76877  -0.10153 
 H                     2.90852   2.0826   -0.94405 
 C                     0.47765   2.999    -0.04039 
 H                     0.25894   3.15067   1.0255 
 H                     1.19944   3.76924  -0.35253 
 O                    -0.66573   3.1493   -0.82751 
 H                    -1.15689   2.28303  -0.83523 
 C                     1.97476  -1.33692  -0.50632 
 H                     2.24202  -0.60883  -1.28618 
 O                     1.6048   -2.56155  -1.12494 
 H                     0.64346  -2.43544  -1.21517 
 C                     3.21545  -1.60301   0.34116 
 H                     2.90153  -1.98415   1.32289 
 H                     3.78844  -2.39451  -0.1508 
 O                     4.07355  -0.48947   0.49265 
 H                     3.53656   0.31411   0.4073 
 H                     0.65945  -1.51948   1.15495 
 

 GradGradGradGradGradGradGradGradGradGradGradGradGradGradGradGradGradGrad
 Berny optimization.
 Initialization pass.
                           ----------------------------
                           !    Initial Parameters    !
                           ! (Angstroms and Degrees)  !
 --------------------------                            --------------------------
 ! Name  Definition              Value          Derivative Info.                !
 --------------------------------------------------------------------------------
 ! R1    R(1,2)                  1.7706         estimate D2E/DX2                !
 ! R2    R(1,3)                  1.783          estimate D2E/DX2                !
 ! R3    R(1,4)                  1.7452         estimate D2E/DX2                !
 ! R4    R(1,5)                  1.8181         estimate D2E/DX2                !
 ! R5    R(1,7)                  1.7574         estimate D2E/DX2                !
 ! R6    R(2,12)                 0.9581         estimate D2E/DX2                !
 ! R7    R(3,14)                 0.9567         estimate D2E/DX2                !
 ! R8    R(4,13)                 0.9538         estimate D2E/DX2                !
 ! R9    R(5,10)                 1.3811         estimate D2E/DX2                !
 ! R10   R(6,8)                  1.3669         estimate D2E/DX2                !
 ! R11   R(7,11)                 0.958          estimate D2E/DX2                !
 ! R12   R(8,9)                  1.1133         estimate D2E/DX2                !
 ! R13   R(8,10)                 1.5473         estimate D2E/DX2                !
 ! R14   R(8,15)                 1.5472         estimate D2E/DX2                !
 ! R15   R(10,24)                1.5371         estimate D2E/DX2                !
 ! R16   R(10,33)                1.1057         estimate D2E/DX2                !
 ! R17   R(15,16)                1.0946         estimate D2E/DX2                !
 ! R18   R(15,17)                1.455          estimate D2E/DX2                !
 ! R19   R(15,19)                1.5277         estimate D2E/DX2                !
 ! R20   R(17,18)                0.955          estimate D2E/DX2                !
 ! R21   R(19,20)                1.0986         estimate D2E/DX2                !
 ! R22   R(19,21)                1.1008         estimate D2E/DX2                !
 ! R23   R(19,22)                1.3962         estimate D2E/DX2                !
 ! R24   R(22,23)                0.9958         estimate D2E/DX2                !
 ! R25   R(24,25)                1.0999         estimate D2E/DX2                !
 ! R26   R(24,26)                1.421          estimate D2E/DX2                !
 ! R27   R(24,28)                1.5259         estimate D2E/DX2                !
 ! R28   R(26,27)                0.9738         estimate D2E/DX2                !
 ! R29   R(28,29)                1.0989         estimate D2E/DX2                !
 ! R30   R(28,30)                1.094          estimate D2E/DX2                !
 ! R31   R(28,31)                1.414          estimate D2E/DX2                !
 ! R32   R(31,32)                0.9702         estimate D2E/DX2                !
 ! A1    A(2,1,4)               95.0233         estimate D2E/DX2                !
 ! A2    A(2,1,5)               93.6421         estimate D2E/DX2                !
 ! A3    A(2,1,7)               90.3701         estimate D2E/DX2                !
 ! A4    A(3,1,4)               97.6224         estimate D2E/DX2                !
 ! A5    A(3,1,5)               88.8288         estimate D2E/DX2                !
 ! A6    A(3,1,7)               86.1504         estimate D2E/DX2                !
 ! A7    A(4,1,5)               89.4738         estimate D2E/DX2                !
 ! A8    A(4,1,7)               95.2531         estimate D2E/DX2                !
 ! A9    A(1,2,12)             101.5149         estimate D2E/DX2                !
 ! A10   A(1,3,14)             102.1568         estimate D2E/DX2                !
 ! A11   A(1,4,13)             105.483          estimate D2E/DX2                !
 ! A12   A(1,5,10)             116.5017         estimate D2E/DX2                !
 ! A13   A(1,7,11)             103.4499         estimate D2E/DX2                !
 ! A14   A(6,8,9)              112.2656         estimate D2E/DX2                !
 ! A15   A(6,8,10)             106.1769         estimate D2E/DX2                !
 ! A16   A(6,8,15)             112.2381         estimate D2E/DX2                !
 ! A17   A(9,8,10)             109.0147         estimate D2E/DX2                !
 ! A18   A(9,8,15)             105.162          estimate D2E/DX2                !
 ! A19   A(10,8,15)            112.0556         estimate D2E/DX2                !
 ! A20   A(5,10,8)             106.9846         estimate D2E/DX2                !
 ! A21   A(5,10,24)            106.531          estimate D2E/DX2                !
 ! A22   A(5,10,33)            109.9734         estimate D2E/DX2                !
 ! A23   A(8,10,24)            120.944          estimate D2E/DX2                !
 ! A24   A(8,10,33)            106.1668         estimate D2E/DX2                !
 ! A25   A(24,10,33)           106.0164         estimate D2E/DX2                !
 ! A26   A(8,15,16)            109.0615         estimate D2E/DX2                !
 ! A27   A(8,15,17)            108.2537         estimate D2E/DX2                !
 ! A28   A(8,15,19)            113.0272         estimate D2E/DX2                !
 ! A29   A(16,15,17)           109.1019         estimate D2E/DX2                !
 ! A30   A(16,15,19)           107.4377         estimate D2E/DX2                !
 ! A31   A(17,15,19)           109.8991         estimate D2E/DX2                !
 ! A32   A(15,17,18)           107.215          estimate D2E/DX2                !
 ! A33   A(15,19,20)           108.7326         estimate D2E/DX2                !
 ! A34   A(15,19,21)           107.892          estimate D2E/DX2                !
 ! A35   A(15,19,22)           112.8091         estimate D2E/DX2                !
 ! A36   A(20,19,21)           108.0023         estimate D2E/DX2                !
 ! A37   A(20,19,22)           111.6584         estimate D2E/DX2                !
 ! A38   A(21,19,22)           107.5653         estimate D2E/DX2                !
 ! A39   A(19,22,23)           108.3376         estimate D2E/DX2                !
 ! A40   A(10,24,25)           110.3217         estimate D2E/DX2                !
 ! A41   A(10,24,26)           106.5697         estimate D2E/DX2                !
 ! A42   A(10,24,28)           115.0052         estimate D2E/DX2                !
 ! A43   A(25,24,26)           108.9702         estimate D2E/DX2                !
 ! A44   A(25,24,28)           108.1601         estimate D2E/DX2                !
 ! A45   A(26,24,28)           107.6493         estimate D2E/DX2                !
 ! A46   A(24,26,27)           100.7054         estimate D2E/DX2                !
 ! A47   A(24,28,29)           108.9278         estimate D2E/DX2                !
 ! A48   A(24,28,30)           107.5942         estimate D2E/DX2                !
 ! A49   A(24,28,31)           114.5582         estimate D2E/DX2                !
 ! A50   A(29,28,30)           107.4835         estimate D2E/DX2                !
 ! A51   A(29,28,31)           110.536          estimate D2E/DX2                !
 ! A52   A(30,28,31)           107.4642         estimate D2E/DX2                !
 ! A53   A(28,31,32)           107.8753         estimate D2E/DX2                !
 ! A54   L(2,1,3,4,-1)         192.6457         estimate D2E/DX2                !
 ! A55   L(5,1,7,2,-1)         184.0123         estimate D2E/DX2                !
 ! A56   L(2,1,3,4,-2)         177.6422         estimate D2E/DX2                !
 ! A57   L(5,1,7,2,-2)         174.9025         estimate D2E/DX2                !
 ! D1    D(4,1,2,12)           176.1783         estimate D2E/DX2                !
 ! D2    D(5,1,2,12)            86.3871         estimate D2E/DX2                !
 ! D3    D(7,1,2,12)           -88.5154         estimate D2E/DX2                !
 ! D4    D(4,1,3,14)            76.7167         estimate D2E/DX2                !
 ! D5    D(5,1,3,14)           166.0289         estimate D2E/DX2                !
 ! D6    D(7,1,3,14)           -18.0774         estimate D2E/DX2                !
 ! D7    D(2,1,4,13)           -86.1315         estimate D2E/DX2                !
 ! D8    D(3,1,4,13)            96.2263         estimate D2E/DX2                !
 ! D9    D(5,1,4,13)             7.4785         estimate D2E/DX2                !
 ! D10   D(7,1,4,13)          -176.9677         estimate D2E/DX2                !
 ! D11   D(2,1,5,10)           -55.3399         estimate D2E/DX2                !
 ! D12   D(3,1,5,10)           112.0249         estimate D2E/DX2                !
 ! D13   D(4,1,5,10)          -150.3399         estimate D2E/DX2                !
 ! D14   D(2,1,7,11)           -12.3282         estimate D2E/DX2                !
 ! D15   D(3,1,7,11)          -179.9347         estimate D2E/DX2                !
 ! D16   D(4,1,7,11)            82.7507         estimate D2E/DX2                !
 ! D17   D(1,5,10,8)           -46.6424         estimate D2E/DX2                !
 ! D18   D(1,5,10,24)         -177.2963         estimate D2E/DX2                !
 ! D19   D(1,5,10,33)           68.2411         estimate D2E/DX2                !
 ! D20   D(6,8,10,5)            45.1684         estimate D2E/DX2                !
 ! D21   D(6,8,10,24)          167.174          estimate D2E/DX2                !
 ! D22   D(6,8,10,33)          -72.2454         estimate D2E/DX2                !
 ! D23   D(9,8,10,5)           166.317          estimate D2E/DX2                !
 ! D24   D(9,8,10,24)          -71.6774         estimate D2E/DX2                !
 ! D25   D(9,8,10,33)           48.9032         estimate D2E/DX2                !
 ! D26   D(15,8,10,5)          -77.6996         estimate D2E/DX2                !
 ! D27   D(15,8,10,24)          44.306          estimate D2E/DX2                !
 ! D28   D(15,8,10,33)         164.8866         estimate D2E/DX2                !
 ! D29   D(6,8,15,16)          -87.3688         estimate D2E/DX2                !
 ! D30   D(6,8,15,17)          154.041          estimate D2E/DX2                !
 ! D31   D(6,8,15,19)           32.0615         estimate D2E/DX2                !
 ! D32   D(9,8,15,16)          150.2935         estimate D2E/DX2                !
 ! D33   D(9,8,15,17)           31.7033         estimate D2E/DX2                !
 ! D34   D(9,8,15,19)          -90.2762         estimate D2E/DX2                !
 ! D35   D(10,8,15,16)          31.999          estimate D2E/DX2                !
 ! D36   D(10,8,15,17)         -86.5912         estimate D2E/DX2                !
 ! D37   D(10,8,15,19)         151.4293         estimate D2E/DX2                !
 ! D38   D(5,10,24,25)          73.791          estimate D2E/DX2                !
 ! D39   D(5,10,24,26)         -44.3642         estimate D2E/DX2                !
 ! D40   D(5,10,24,28)        -163.5615         estimate D2E/DX2                !
 ! D41   D(8,10,24,25)         -48.4322         estimate D2E/DX2                !
 ! D42   D(8,10,24,26)        -166.5874         estimate D2E/DX2                !
 ! D43   D(8,10,24,28)          74.2153         estimate D2E/DX2                !
 ! D44   D(33,10,24,25)       -169.0862         estimate D2E/DX2                !
 ! D45   D(33,10,24,26)         72.7587         estimate D2E/DX2                !
 ! D46   D(33,10,24,28)        -46.4386         estimate D2E/DX2                !
 ! D47   D(8,15,17,18)         155.4987         estimate D2E/DX2                !
 ! D48   D(16,15,17,18)         36.9342         estimate D2E/DX2                !
 ! D49   D(19,15,17,18)        -80.6225         estimate D2E/DX2                !
 ! D50   D(8,15,19,20)          31.0835         estimate D2E/DX2                !
 ! D51   D(8,15,19,21)         147.9816         estimate D2E/DX2                !
 ! D52   D(8,15,19,22)         -93.3459         estimate D2E/DX2                !
 ! D53   D(16,15,19,20)        151.4451         estimate D2E/DX2                !
 ! D54   D(16,15,19,21)        -91.6567         estimate D2E/DX2                !
 ! D55   D(16,15,19,22)         27.0157         estimate D2E/DX2                !
 ! D56   D(17,15,19,20)        -89.968          estimate D2E/DX2                !
 ! D57   D(17,15,19,21)         26.9302         estimate D2E/DX2                !
 ! D58   D(17,15,19,22)        145.6026         estimate D2E/DX2                !
 ! D59   D(15,19,22,23)         38.4496         estimate D2E/DX2                !
 ! D60   D(20,19,22,23)        -84.3609         estimate D2E/DX2                !
 ! D61   D(21,19,22,23)        157.3123         estimate D2E/DX2                !
 ! D62   D(10,24,26,27)         27.3092         estimate D2E/DX2                !
 ! D63   D(25,24,26,27)        -91.7311         estimate D2E/DX2                !
 ! D64   D(28,24,26,27)        151.1898         estimate D2E/DX2                !
 ! D65   D(10,24,28,29)         33.8593         estimate D2E/DX2                !
 ! D66   D(10,24,28,30)        150.0866         estimate D2E/DX2                !
 ! D67   D(10,24,28,31)        -90.5035         estimate D2E/DX2                !
 ! D68   D(25,24,28,29)        157.6588         estimate D2E/DX2                !
 ! D69   D(25,24,28,30)        -86.1138         estimate D2E/DX2                !
 ! D70   D(25,24,28,31)         33.296          estimate D2E/DX2                !
 ! D71   D(26,24,28,29)        -84.7359         estimate D2E/DX2                !
 ! D72   D(26,24,28,30)         31.4915         estimate D2E/DX2                !
 ! D73   D(26,24,28,31)        150.9013         estimate D2E/DX2                !
 ! D74   D(24,28,31,32)         27.0601         estimate D2E/DX2                !
 ! D75   D(29,28,31,32)        -96.4454         estimate D2E/DX2                !
 ! D76   D(30,28,31,32)        146.5427         estimate D2E/DX2                !
 --------------------------------------------------------------------------------
 Trust Radius=3.00D-01 FncErr=1.00D-07 GrdErr=1.00D-06 EigMax=2.50D+02 EigMin=1.00D-04
 Number of steps in this run=    175 maximum allowed number of steps=    198.
 GradGradGradGradGradGradGradGradGradGradGradGradGradGradGradGradGradGrad

                          Input orientation:                          
 ---------------------------------------------------------------------
 Center     Atomic      Atomic             Coordinates (Angstroms)
 Number     Number       Type             X           Y           Z
 ---------------------------------------------------------------------
      1         14           0       -1.950891   -0.462215    0.083935
      2          8           0       -1.839207   -1.444284    1.552961
      3          8           0       -1.949846    0.822647   -1.152281
      4          8           0       -2.742300   -1.695187   -0.864342
      5          8           0       -0.344580   -1.026026   -0.554305
      6          8           0       -0.631025    0.789889    1.200594
      7          8           0       -3.437526    0.267940    0.671396
      8          6           0        0.668502    0.592582    0.825496
      9          1           0        1.374312    0.693653    1.680468
     10          6           0        0.744315   -0.852381    0.277291
     11          1           0       -3.679057   -0.285767    1.414981
     12          1           0       -1.350158   -0.861830    2.135685
     13          1           0       -2.039221   -2.228272   -1.226584
     14          1           0       -2.857413    1.124402   -1.129992
     15          6           0        1.142114    1.634557   -0.215596
     16          1           0        0.893919    1.275316   -1.219298
     17          8           0        2.586396    1.768773   -0.101530
     18          1           0        2.908517    2.082604   -0.944052
     19          6           0        0.477646    2.999002   -0.040390
     20          1           0        0.258944    3.150668    1.025495
     21          1           0        1.199444    3.769240   -0.352530
     22          8           0       -0.665732    3.149299   -0.827508
     23          1           0       -1.156885    2.283028   -0.835228
     24          6           0        1.974764   -1.336921   -0.506316
     25          1           0        2.242015   -0.608831   -1.286176
     26          8           0        1.604804   -2.561550   -1.124940
     27          1           0        0.643456   -2.435444   -1.215168
     28          6           0        3.215453   -1.603013    0.341159
     29          1           0        2.901525   -1.984145    1.322885
     30          1           0        3.788436   -2.394514   -0.150798
     31          8           0        4.073552   -0.489465    0.492647
     32          1           0        3.536558    0.314108    0.407301
     33          1           0        0.659445   -1.519475    1.154952
 ---------------------------------------------------------------------
                    Distance matrix (angstroms):
                    1          2          3          4          5
     1  Si   0.000000
     2  O    1.770585   0.000000
     3  O    1.783003   3.531225   0.000000
     4  O    1.745216   2.592659   2.655255   0.000000
     5  O    1.818095   2.617140   2.520327   2.508577   0.000000
     6  O    2.134652   2.564253   2.697477   3.859669   2.541509
     7  O    1.757362   2.502697   2.417993   2.587605   3.569735
     8  C    2.919543   3.311591   3.289419   4.441060   2.355860
     9  H    3.865478   3.861831   4.369340   5.397139   3.302438
    10  C    2.730156   2.941474   3.479641   3.764324   1.381085
    11  H    2.188464   2.178589   3.287794   2.838889   3.942690
    12  H    2.174914   0.958117   3.742701   3.410675   2.876490
    13  H    2.200959   2.894912   3.053132   0.953792   2.183841
    14  H    2.193799   3.851380   0.956677   2.834414   3.357095
    15  C    3.748713   4.636306   3.331185   5.157203   3.066543
    16  H    3.579158   4.748855   2.880347   4.708712   2.696715
    17  O    5.059514   5.713759   4.751497   6.401242   4.075111
    18  H    5.580924   6.419883   5.023399   6.797778   4.516428
    19  C    4.230044   5.258266   3.444639   5.751727   4.140171
    20  H    4.338528   5.078784   3.878291   6.005103   4.506083
    21  H    5.293423   6.328122   4.386347   6.757164   5.041756
    22  O    3.940228   5.305156   2.677263   5.270914   4.196560
    23  H    3.001944   4.479047   1.691751   4.282591   3.418859
    24  C    4.065006   4.335726   4.525878   4.744179   2.340580
    25  H    4.413520   5.041335   4.431564   5.118741   2.720324
    26  O    4.302505   4.503404   4.908062   4.440249   2.546283
    27  H    3.508837   3.848188   4.164652   3.483447   1.843750
    28  C    5.297046   5.200312   5.898687   6.079190   3.715993
    29  H    5.234234   4.776916   6.127016   6.059721   3.870275
    30  H    6.060425   5.956181   6.654395   6.606717   4.372345
    31  O    6.038353   6.082488   6.380341   7.053441   4.572078
    32  H    5.551517   5.770904   5.726390   6.714045   4.217093
    33  H    3.013093   2.531270   4.197292   3.959835   2.042821
                    6          7          8          9         10
     6  O    0.000000
     7  O    2.903262   0.000000
     8  C    1.366894   4.121724   0.000000
     9  H    2.064199   4.934900   1.113266   0.000000
    10  C    2.332616   4.347210   1.547318   2.180831   0.000000
    11  H    3.239367   0.958043   4.474400   5.154249   4.602348
    12  H    2.029710   2.788840   2.811921   3.170093   2.800095
    13  H    4.121105   3.433462   4.415882   5.351710   3.450042
    14  H    3.240422   2.077272   4.066798   5.098208   4.342875
    15  C    2.421380   4.860813   1.547221   2.129384   2.566329
    16  H    2.901202   4.832282   2.167515   2.996290   2.605620
    17  O    3.606319   6.256001   2.433335   2.408433   3.226022
    18  H    4.335779   6.795214   3.220114   3.342316   3.845723
    19  C    2.765750   4.826377   2.564574   3.013303   3.873653
    20  H    2.529028   4.701000   2.598373   2.776681   4.101194
    21  H    3.826139   5.899917   3.429402   3.690921   4.686491
    22  O    3.111466   4.269869   3.324064   4.059793   4.384319
    23  H    2.578869   3.395853   2.991262   3.906635   3.831847
    24  C    3.771869   5.766755   2.683845   3.043977   1.537148
    25  H    4.049049   6.071079   2.894563   3.354154   2.178727
    26  O    4.651794   6.054579   3.824841   4.303462   2.372330
    27  H    4.226462   5.246125   3.651558   4.325518   2.178002
    28  C    4.610857   6.918934   3.397378   3.233918   2.583418
    29  H    4.493231   6.758690   3.445767   3.103361   2.650983
    30  H    5.612336   7.744623   4.428304   4.326466   3.439202
    31  O    4.926559   7.551285   3.588312   3.177512   3.355876
    32  H    4.269008   6.979235   2.911731   2.537778   3.028898
    33  H    2.645857   4.495982   2.137617   2.384353   1.105670
                   11         12         13         14         15
    11  H    0.000000
    12  H    2.505002   0.000000
    13  H    3.666095   3.694161   0.000000
    14  H    3.023336   4.108720   3.452418   0.000000
    15  C    5.439680   4.239327   5.105334   4.134319   0.000000
    16  H    5.503500   4.567186   4.569299   3.755428   1.094565
    17  O    6.765859   5.236570   6.215983   5.577455   1.454983
    18  H    7.387175   6.024183   6.568378   5.847963   1.962543
    19  C    5.494178   4.793975   5.921661   3.977936   1.527719
    20  H    5.241053   4.463392   6.267888   4.296924   2.149160
    21  H    6.585359   5.842816   6.871905   4.904865   2.139839
    22  O    5.090045   5.033697   5.564531   2.999195   2.436634
    23  H    4.245409   4.330567   4.613405   2.078724   2.467763
    24  C    6.063167   4.273288   4.174370   5.458664   3.099598
    25  H    6.516112   4.967580   4.577676   5.388196   2.718219
    26  O    6.288845   4.717258   3.660645   5.787715   4.318368
    27  H    5.497537   4.204637   2.690689   4.993580   4.220511
    28  C    7.100880   4.961298   5.519091   6.817828   3.884658
    29  H    6.796840   4.471805   5.565102   6.988922   4.307836
    30  H    7.915929   5.829432   5.928452   7.583462   4.820854
    31  O    7.809938   5.679336   6.583707   7.299027   3.688686
    32  H    7.310292   5.315086   6.342128   6.625912   2.804452
    33  H    4.517992   2.330845   3.668365   4.957756   3.472649
                   16         17         18         19         20
    16  H    0.000000
    17  O    2.087435   0.000000
    18  H    2.187711   0.955037   0.000000
    19  C    2.129366   2.442136   2.750550   0.000000
    20  H    2.993198   2.932039   3.469887   1.098610   0.000000
    21  H    2.657873   2.447142   2.472968   1.100768   1.779361
    22  O    2.469377   3.606831   3.731846   1.396230   2.070905
    23  H    2.317065   3.849016   4.071794   1.953478   2.493925
    24  C    2.915536   3.191125   3.571646   4.610713   5.042711
    25  H    2.317724   2.678616   2.793760   4.204930   4.838412
    26  O    3.903306   4.556598   4.827065   5.776372   6.250212
    27  H    3.719205   4.763470   5.061301   5.562445   6.031009
    28  C    4.013642   3.458414   3.915322   5.368399   5.639747
    29  H    4.595352   4.026494   4.655910   5.706616   5.782558
    30  H    4.794536   4.333623   4.631209   6.329576   6.677576
    31  O    4.019362   2.768450   3.168115   5.038261   5.299597
    32  H    3.248582   1.810460   2.312611   4.094634   4.378469
    33  H    3.674629   4.013037   4.736994   4.677449   4.689072
                   21         22         23         24         25
    21  H    0.000000
    22  O    2.022081   0.000000
    23  H    2.827386   0.995850   0.000000
    24  C    5.166977   5.215511   4.797858   0.000000
    25  H    4.596320   4.773773   4.485390   1.099873   0.000000
    26  O    6.390605   6.152853   5.583977   1.421015   2.060375
    27  H    6.288988   5.749227   5.064539   1.865906   2.428363
    28  C    5.779844   6.246107   5.966786   1.525886   2.141074
    29  H    6.229409   6.610731   6.271914   2.150293   3.022191
    30  H    6.688456   7.143627   6.841348   2.129390   2.620909
    31  O    5.206860   6.119169   6.066914   2.474069   2.555971
    32  H    4.239974   5.217500   5.239173   2.449448   2.322826
    33  H    5.525813   5.242489   4.660354   2.126782   3.048427
                   26         27         28         29         30
    26  O    0.000000
    27  H    0.973773   0.000000
    28  C    2.379586   3.119337   0.000000
    29  H    2.829616   3.426990   1.098908   0.000000
    30  H    2.396894   3.320461   1.093986   1.768263   0.000000
    31  O    3.606222   4.297560   1.413956   2.072923   2.030892
    32  H    3.787987   4.308420   1.944951   2.554120   2.776968
    33  H    2.679092   2.541008   2.683731   2.295875   3.501608
                   31         32         33
    31  O    0.000000
    32  H    0.970245   0.000000
    33  H    3.627078   3.492676   0.000000
 Stoichiometry    C6H16O10Si(2-)
 Framework group  C1[X(C6H16O10Si)]
 Deg. of freedom    93
 Full point group                 C1      NOp   1
 Largest Abelian subgroup         C1      NOp   1
 Largest concise Abelian subgroup C1      NOp   1
                         Standard orientation:                         
 ---------------------------------------------------------------------
 Center     Atomic      Atomic             Coordinates (Angstroms)
 Number     Number       Type             X           Y           Z
 ---------------------------------------------------------------------
      1         14           0       -1.962949   -0.548795    0.052994
      2          8           0       -1.825372   -1.556462    1.502356
      3          8           0       -2.001747    0.760866   -1.156297
      4          8           0       -2.697281   -1.791481   -0.927958
      5          8           0       -0.330378   -1.035924   -0.581739
      6          8           0       -0.702772    0.730084    1.207619
      7          8           0       -3.482030    0.110254    0.641523
      8          6           0        0.606645    0.591586    0.840679
      9          1           0        1.300630    0.702107    1.704120
     10          6           0        0.743737   -0.837457    0.263414
     11          1           0       -3.707995   -0.467987    1.371197
     12          1           0       -1.364528   -0.967760    2.101557
     13          1           0       -1.970774   -2.288976   -1.294570
     14          1           0       -2.920607    1.026434   -1.136249
     15          6           0        1.047893    1.672935   -0.174149
     16          1           0        0.822547    1.325489   -1.187348
     17          8           0        2.484776    1.860987   -0.043836
     18          1           0        2.801516    2.204816   -0.876633
     19          6           0        0.328959    3.006417    0.023046
     20          1           0        0.095395    3.126961    1.089751
     21          1           0        1.022633    3.810639   -0.266324
     22          8           0       -0.812678    3.128510   -0.771444
     23          1           0       -1.269399    2.244085   -0.801685
     24          6           0        1.998880   -1.257003   -0.518521
     25          1           0        2.244014   -0.502783   -1.280611
     26          8           0        1.682518   -2.481844   -1.165793
     27          1           0        0.717769   -2.391483   -1.262372
     28          6           0        3.241776   -1.492250    0.334823
     29          1           0        2.934674   -1.905924    1.305472
     30          1           0        3.849532   -2.250254   -0.168036
     31          8           0        4.054223   -0.349496    0.517342
     32          1           0        3.486877    0.434125    0.443633
     33          1           0        0.677610   -1.525682    1.126246
 ---------------------------------------------------------------------
 Rotational constants (GHZ):           0.5695817           0.3547912           0.2587614
 Standard basis: def2TZVPP (5D, 7F)
 There are   864 symmetry adapted cartesian basis functions of A   symmetry.
 There are   762 symmetry adapted basis functions of A   symmetry.
   762 basis functions,  1157 primitive gaussians,   864 cartesian basis functions
    74 alpha electrons       74 beta electrons
       nuclear repulsion energy      1699.7740953892 Hartrees.
 NAtoms=   33 NActive=   33 NUniq=   33 SFac= 1.00D+00 NAtFMM=   60 NAOKFM=F Big=F
 Integral buffers will be    131072 words long.
 Raffenetti 2 integral format.
 Two-electron integral symmetry is turned on.
 Nuclear repulsion after empirical dispersion term =     1699.7461175562 Hartrees.
 One-electron integrals computed using PRISM.
   1 Symmetry operations used in ECPInt.
 ECPInt:  NShTT=   41041 NPrTT=  113485 LenC2=   37152 LenP2D=   76109.
 LDataN:  DoStor=T MaxTD1= 6 Len=  172
 NBasis=   762 RedAO= T EigKep=  4.41D-05  NBF=   762
 NBsUse=   762 1.00D-06 EigRej= -1.00D+00 NBFU=   762
 ExpMin= 7.01D-02 ExpMax= 4.48D+04 ExpMxC= 1.53D+03 IAcc=3 IRadAn=         5 AccDes= 0.00D+00
 Harris functional with IExCor= 4639 and IRadAn=       5 diagonalized for initial guess.
 HarFok:  IExCor= 4639 AccDes= 0.00D+00 IRadAn=         5 IDoV= 1 UseB2=F ITyADJ=14
 ICtDFT=  3500011 ScaDFX=  1.000000  1.000000  1.000000  1.000000
 FoFCou: FMM=F IPFlag=           0 FMFlag=      100000 FMFlg1=           0
         NFxFlg=           0 DoJE=T BraDBF=F KetDBF=T FulRan=T
         wScrn=  0.000000 ICntrl=       500 IOpCl=  0 I1Cent=   200000004 NGrid=           0
         NMat0=    1 NMatS0=      1 NMatT0=    0 NMatD0=    1 NMtDS0=    0 NMtDT0=    0
 Petite list used in FoFCou.
 Requested convergence on RMS density matrix=1.00D-08 within 128 cycles.
 Requested convergence on MAX density matrix=1.00D-06.
 Requested convergence on             energy=1.00D-06.
 No special actions if energy rises.
 Integral accuracy reduced to 1.0D-05 until final iterations.
 Initial convergence to 1.0D-05 achieved.  Increase integral accuracy.
 SCF Done:  E(RwB97XD) =  -1280.31603957     A.U. after   15 cycles
            NFock= 15  Conv=0.45D-08     -V/T= 2.0037

 **********************************************************************

            Population analysis using the SCF Density.

 **********************************************************************

 Orbital symmetries:
       Occupied  (A) (A) (A) (A) (A) (A) (A) (A) (A) (A) (A) (A)
                 (A) (A) (A) (A) (A) (A) (A) (A) (A) (A) (A) (A)
                 (A) (A) (A) (A) (A) (A) (A) (A) (A) (A) (A) (A)
                 (A) (A) (A) (A) (A) (A) (A) (A) (A) (A) (A) (A)
                 (A) (A) (A) (A) (A) (A) (A) (A) (A) (A) (A) (A)
                 (A) (A) (A) (A) (A) (A) (A) (A) (A) (A) (A) (A)
                 (A) (A)
       Virtual   (A) (A) (A) (A) (A) (A) (A) (A) (A) (A) (A) (A)
                 (A) (A) (A) (A) (A) (A) (A) (A) (A) (A) (A) (A)
                 (A) (A) (A) (A) (A) (A) (A) (A) (A) (A) (A) (A)
                 (A) (A) (A) (A) (A) (A) (A) (A) (A) (A) (A) (A)
                 (A) (A) (A) (A) (A) (A) (A) (A) (A) (A) (A) (A)
                 (A) (A) (A) (A) (A) (A) (A) (A) (A) (A) (A) (A)
                 (A) (A) (A) (A) (A) (A) (A) (A) (A) (A) (A) (A)
                 (A) (A) (A) (A) (A) (A) (A) (A) (A) (A) (A) (A)
                 (A) (A) (A) (A) (A) (A) (A) (A) (A) (A) (A) (A)
                 (A) (A) (A) (A) (A) (A) (A) (A) (A) (A) (A) (A)
                 (A) (A) (A) (A) (A) (A) (A) (A) (A) (A) (A) (A)
                 (A) (A) (A) (A) (A) (A) (A) (A) (A) (A) (A) (A)
                 (A) (A) (A) (A) (A) (A) (A) (A) (A) (A) (A) (A)
                 (A) (A) (A) (A) (A) (A) (A) (A) (A) (A) (A) (A)
                 (A) (A) (A) (A) (A) (A) (A) (A) (A) (A) (A) (A)
                 (A) (A) (A) (A) (A) (A) (A) (A) (A) (A) (A) (A)
                 (A) (A) (A) (A) (A) (A) (A) (A) (A) (A) (A) (A)
                 (A) (A) (A) (A) (A) (A) (A) (A) (A) (A) (A) (A)
                 (A) (A) (A) (A) (A) (A) (A) (A) (A) (A) (A) (A)
                 (A) (A) (A) (A) (A) (A) (A) (A) (A) (A) (A) (A)
                 (A) (A) (A) (A) (A) (A) (A) (A) (A) (A) (A) (A)
                 (A) (A) (A) (A) (A) (A) (A) (A) (A) (A) (A) (A)
                 (A) (A) (A) (A) (A) (A) (A) (A) (A) (A) (A) (A)
                 (A) (A) (A) (A) (A) (A) (A) (A) (A) (A) (A) (A)
                 (A) (A) (A) (A) (A) (A) (A) (A) (A) (A) (A) (A)
                 (A) (A) (A) (A) (A) (A) (A) (A) (A) (A) (A) (A)
                 (A) (A) (A) (A) (A) (A) (A) (A) (A) (A) (A) (A)
                 (A) (A) (A) (A) (A) (A) (A) (A) (A) (A) (A) (A)
                 (A) (A) (A) (A) (A) (A) (A) (A) (A) (A) (A) (A)
                 (A) (A) (A) (A) (A) (A) (A) (A) (A) (A) (A) (A)
                 (A) (A) (A) (A) (A) (A) (A) (A) (A) (A) (A) (A)
                 (A) (A) (A) (A) (A) (A) (A) (A) (A) (A) (A) (A)
                 (A) (A) (A) (A) (A) (A) (A) (A) (A) (A) (A) (A)
                 (A) (A) (A) (A) (A) (A) (A) (A) (A) (A) (A) (A)
                 (A) (A) (A) (A) (A) (A) (A) (A) (A) (A) (A) (A)
                 (A) (A) (A) (A) (A) (A) (A) (A) (A) (A) (A) (A)
                 (A) (A) (A) (A) (A) (A) (A) (A) (A) (A) (A) (A)
                 (A) (A) (A) (A) (A) (A) (A) (A) (A) (A) (A) (A)
                 (A) (A) (A) (A) (A) (A) (A) (A) (A) (A) (A) (A)
                 (A) (A) (A) (A) (A) (A) (A) (A) (A) (A) (A) (A)
                 (A) (A) (A) (A) (A) (A) (A) (A) (A) (A) (A) (A)
                 (A) (A) (A) (A) (A) (A) (A) (A) (A) (A) (A) (A)
                 (A) (A) (A) (A) (A) (A) (A) (A) (A) (A) (A) (A)
                 (A) (A) (A) (A) (A) (A) (A) (A) (A) (A) (A) (A)
                 (A) (A) (A) (A) (A) (A) (A) (A) (A) (A) (A) (A)
                 (A) (A) (A) (A) (A) (A) (A) (A) (A) (A) (A) (A)
                 (A) (A) (A) (A) (A) (A) (A) (A) (A) (A) (A) (A)
                 (A) (A) (A) (A) (A) (A) (A) (A) (A) (A) (A) (A)
                 (A) (A) (A) (A) (A) (A) (A) (A) (A) (A) (A) (A)
                 (A) (A) (A) (A) (A) (A) (A) (A) (A) (A) (A) (A)
                 (A) (A) (A) (A) (A) (A) (A) (A) (A) (A) (A) (A)
                 (A) (A) (A) (A) (A) (A) (A) (A) (A) (A) (A) (A)
                 (A) (A) (A) (A) (A) (A) (A) (A) (A) (A) (A) (A)
                 (A) (A) (A) (A) (A) (A) (A) (A) (A) (A) (A) (A)
                 (A) (A) (A) (A) (A) (A) (A) (A) (A) (A) (A) (A)
                 (A) (A) (A) (A) (A) (A) (A) (A) (A) (A) (A) (A)
                 (A) (A) (A) (A) (A) (A) (A) (A) (A) (A) (A) (A)
                 (A) (A) (A) (A)
 The electronic state is 1-A.
 Alpha  occ. eigenvalues --  -66.00236 -19.04431 -19.01512 -18.99847 -18.96838
 Alpha  occ. eigenvalues --  -18.93113 -18.91415 -18.90530 -18.90338 -18.89862
 Alpha  occ. eigenvalues --  -18.89574 -10.09980 -10.08729 -10.08228 -10.07688
 Alpha  occ. eigenvalues --  -10.05619 -10.05515  -5.10748  -3.45394  -3.45293
 Alpha  occ. eigenvalues --   -3.45214  -0.91500  -0.89533  -0.88258  -0.85104
 Alpha  occ. eigenvalues --   -0.82493  -0.78422  -0.76502  -0.75759  -0.74542
 Alpha  occ. eigenvalues --   -0.73303  -0.61032  -0.58816  -0.53226  -0.48583
 Alpha  occ. eigenvalues --   -0.45080  -0.40437  -0.38452  -0.36483  -0.34971
 Alpha  occ. eigenvalues --   -0.34524  -0.32028  -0.30849  -0.30441  -0.28637
 Alpha  occ. eigenvalues --   -0.27872  -0.27397  -0.26681  -0.25799  -0.24937
 Alpha  occ. eigenvalues --   -0.23597  -0.23047  -0.21745  -0.21459  -0.20454
 Alpha  occ. eigenvalues --   -0.19843  -0.17812  -0.17020  -0.15576  -0.14456
 Alpha  occ. eigenvalues --   -0.14243  -0.13235  -0.12486  -0.11804  -0.10605
 Alpha  occ. eigenvalues --   -0.09656  -0.09276  -0.08772  -0.07759  -0.06097
 Alpha  occ. eigenvalues --   -0.05739  -0.05050  -0.03847  -0.02480
 Alpha virt. eigenvalues --    0.30373   0.34209   0.36000   0.36155   0.37613
 Alpha virt. eigenvalues --    0.39184   0.39716   0.40042   0.41352   0.41602
 Alpha virt. eigenvalues --    0.42913   0.43115   0.44061   0.45099   0.45902
 Alpha virt. eigenvalues --    0.47232   0.47683   0.48142   0.49985   0.50566
 Alpha virt. eigenvalues --    0.51259   0.52564   0.53070   0.53929   0.55095
 Alpha virt. eigenvalues --    0.55432   0.55556   0.56470   0.57723   0.58096
 Alpha virt. eigenvalues --    0.59197   0.59878   0.61078   0.62343   0.62796
 Alpha virt. eigenvalues --    0.63698   0.64304   0.64791   0.65208   0.65654
 Alpha virt. eigenvalues --    0.66320   0.67167   0.67930   0.68789   0.69228
 Alpha virt. eigenvalues --    0.69795   0.70296   0.71025   0.71512   0.71597
 Alpha virt. eigenvalues --    0.72452   0.72489   0.72721   0.73162   0.73590
 Alpha virt. eigenvalues --    0.74117   0.74844   0.75035   0.75981   0.76352
 Alpha virt. eigenvalues --    0.76597   0.77041   0.77183   0.78333   0.79370
 Alpha virt. eigenvalues --    0.79540   0.80729   0.81192   0.81607   0.81929
 Alpha virt. eigenvalues --    0.82430   0.82931   0.83287   0.84612   0.84842
 Alpha virt. eigenvalues --    0.85411   0.85639   0.87463   0.87569   0.88005
 Alpha virt. eigenvalues --    0.88947   0.89434   0.90124   0.91418   0.92936
 Alpha virt. eigenvalues --    0.93555   0.94094   0.94648   0.94810   0.96281
 Alpha virt. eigenvalues --    0.97196   0.98027   0.98285   0.99371   0.99717
 Alpha virt. eigenvalues --    1.01323   1.02151   1.02420   1.03126   1.04226
 Alpha virt. eigenvalues --    1.04828   1.05903   1.06965   1.08074   1.08776
 Alpha virt. eigenvalues --    1.10328   1.10527   1.12192   1.13221   1.13561
 Alpha virt. eigenvalues --    1.14590   1.15298   1.15662   1.16588   1.16754
 Alpha virt. eigenvalues --    1.16893   1.18157   1.19495   1.19662   1.20674
 Alpha virt. eigenvalues --    1.21352   1.22569   1.23559   1.24361   1.26691
 Alpha virt. eigenvalues --    1.26957   1.27682   1.28354   1.28573   1.29905
 Alpha virt. eigenvalues --    1.30207   1.31298   1.32381   1.32800   1.33484
 Alpha virt. eigenvalues --    1.33951   1.34834   1.35483   1.36341   1.36751
 Alpha virt. eigenvalues --    1.37115   1.37636   1.38163   1.39712   1.41175
 Alpha virt. eigenvalues --    1.41404   1.42849   1.43528   1.44028   1.44447
 Alpha virt. eigenvalues --    1.46121   1.46700   1.47105   1.47853   1.48016
 Alpha virt. eigenvalues --    1.49624   1.50097   1.50323   1.51208   1.51829
 Alpha virt. eigenvalues --    1.53544   1.54698   1.54953   1.56087   1.56465
 Alpha virt. eigenvalues --    1.58313   1.59186   1.60375   1.60555   1.62234
 Alpha virt. eigenvalues --    1.63518   1.64046   1.65135   1.65399   1.66792
 Alpha virt. eigenvalues --    1.68028   1.68760   1.69642   1.70908   1.72176
 Alpha virt. eigenvalues --    1.72615   1.72915   1.73292   1.74106   1.74930
 Alpha virt. eigenvalues --    1.75701   1.77047   1.77463   1.78014   1.79079
 Alpha virt. eigenvalues --    1.80254   1.81390   1.82067   1.82799   1.83577
 Alpha virt. eigenvalues --    1.84342   1.84683   1.85536   1.86450   1.88022
 Alpha virt. eigenvalues --    1.88370   1.91307   1.92042   1.92744   1.93530
 Alpha virt. eigenvalues --    1.94540   1.97139   1.97691   1.99385   2.00751
 Alpha virt. eigenvalues --    2.01308   2.02435   2.06391   2.08978   2.09502
 Alpha virt. eigenvalues --    2.11949   2.14135   2.16014   2.16160   2.17140
 Alpha virt. eigenvalues --    2.17794   2.18297   2.20055   2.21438   2.22987
 Alpha virt. eigenvalues --    2.23568   2.24941   2.25621   2.26576   2.27822
 Alpha virt. eigenvalues --    2.28437   2.29285   2.30094   2.30751   2.31578
 Alpha virt. eigenvalues --    2.33161   2.33773   2.34713   2.35261   2.35940
 Alpha virt. eigenvalues --    2.36726   2.38018   2.38289   2.39528   2.40186
 Alpha virt. eigenvalues --    2.41037   2.41738   2.42418   2.43889   2.44443
 Alpha virt. eigenvalues --    2.45650   2.46387   2.47344   2.47841   2.49000
 Alpha virt. eigenvalues --    2.49838   2.51177   2.52331   2.53314   2.54520
 Alpha virt. eigenvalues --    2.55069   2.56168   2.57782   2.58112   2.60176
 Alpha virt. eigenvalues --    2.60658   2.62711   2.63940   2.65427   2.68154
 Alpha virt. eigenvalues --    2.69095   2.70654   2.72227   2.72600   2.74930
 Alpha virt. eigenvalues --    2.77194   2.78416   2.78560   2.80345   2.81635
 Alpha virt. eigenvalues --    2.82215   2.83548   2.85481   2.87035   2.88427
 Alpha virt. eigenvalues --    2.91180   2.92152   2.93558   2.95348   2.96419
 Alpha virt. eigenvalues --    2.97879   2.98599   2.99257   3.00125   3.00722
 Alpha virt. eigenvalues --    3.02050   3.02966   3.05216   3.05554   3.07463
 Alpha virt. eigenvalues --    3.08304   3.09014   3.09665   3.10409   3.12557
 Alpha virt. eigenvalues --    3.13349   3.15111   3.15521   3.17263   3.18041
 Alpha virt. eigenvalues --    3.19501   3.21155   3.21677   3.23605   3.24970
 Alpha virt. eigenvalues --    3.25891   3.27284   3.29494   3.29917   3.30601
 Alpha virt. eigenvalues --    3.31445   3.32926   3.33609   3.34435   3.34823
 Alpha virt. eigenvalues --    3.35717   3.37554   3.39035   3.39562   3.40139
 Alpha virt. eigenvalues --    3.41351   3.41618   3.42288   3.43109   3.44059
 Alpha virt. eigenvalues --    3.45440   3.46395   3.47374   3.47723   3.48704
 Alpha virt. eigenvalues --    3.49560   3.50125   3.50896   3.52174   3.52916
 Alpha virt. eigenvalues --    3.53326   3.54726   3.55110   3.56284   3.56567
 Alpha virt. eigenvalues --    3.58575   3.59738   3.60850   3.63136   3.64245
 Alpha virt. eigenvalues --    3.64945   3.66260   3.66390   3.67437   3.69008
 Alpha virt. eigenvalues --    3.69339   3.69911   3.70599   3.71082   3.72628
 Alpha virt. eigenvalues --    3.73147   3.74382   3.74757   3.75893   3.76374
 Alpha virt. eigenvalues --    3.77486   3.78437   3.78750   3.79468   3.80240
 Alpha virt. eigenvalues --    3.80426   3.82538   3.83662   3.83902   3.84634
 Alpha virt. eigenvalues --    3.85589   3.87307   3.88389   3.89117   3.89910
 Alpha virt. eigenvalues --    3.91300   3.91607   3.91874   3.93633   3.93924
 Alpha virt. eigenvalues --    3.94721   3.95889   3.96734   3.97929   3.99526
 Alpha virt. eigenvalues --    4.00214   4.00897   4.02796   4.03153   4.03433
 Alpha virt. eigenvalues --    4.05018   4.06561   4.06886   4.07984   4.08905
 Alpha virt. eigenvalues --    4.09878   4.10374   4.11203   4.11588   4.12802
 Alpha virt. eigenvalues --    4.13921   4.15056   4.16316   4.17846   4.19329
 Alpha virt. eigenvalues --    4.20162   4.20536   4.21631   4.22586   4.22824
 Alpha virt. eigenvalues --    4.24025   4.25372   4.25408   4.26650   4.27767
 Alpha virt. eigenvalues --    4.29159   4.30348   4.31181   4.32369   4.33418
 Alpha virt. eigenvalues --    4.33656   4.33857   4.34356   4.35627   4.36602
 Alpha virt. eigenvalues --    4.38049   4.39027   4.39702   4.40808   4.41399
 Alpha virt. eigenvalues --    4.42724   4.43679   4.45200   4.45530   4.46124
 Alpha virt. eigenvalues --    4.46871   4.47413   4.49123   4.49736   4.50370
 Alpha virt. eigenvalues --    4.51103   4.51690   4.52699   4.54251   4.54639
 Alpha virt. eigenvalues --    4.55380   4.55839   4.57440   4.58717   4.59695
 Alpha virt. eigenvalues --    4.60946   4.61925   4.62236   4.62722   4.63667
 Alpha virt. eigenvalues --    4.64908   4.65637   4.66647   4.67223   4.68161
 Alpha virt. eigenvalues --    4.70597   4.70996   4.72171   4.73459   4.73945
 Alpha virt. eigenvalues --    4.75879   4.76482   4.77900   4.78681   4.79259
 Alpha virt. eigenvalues --    4.81258   4.81787   4.84393   4.84915   4.85592
 Alpha virt. eigenvalues --    4.87043   4.87741   4.92067   4.92916   4.94172
 Alpha virt. eigenvalues --    4.95784   4.96864   4.98097   4.98661   5.02307
 Alpha virt. eigenvalues --    5.03868   5.04473   5.06164   5.07643   5.08457
 Alpha virt. eigenvalues --    5.09774   5.11042   5.11917   5.12868   5.14818
 Alpha virt. eigenvalues --    5.15407   5.16531   5.17682   5.19550   5.23913
 Alpha virt. eigenvalues --    5.25596   5.26636   5.27040   5.27870   5.30133
 Alpha virt. eigenvalues --    5.31698   5.32866   5.33217   5.33936   5.34807
 Alpha virt. eigenvalues --    5.36071   5.39117   5.39776   5.41068   5.42352
 Alpha virt. eigenvalues --    5.43499   5.45823   5.46205   5.49122   5.50020
 Alpha virt. eigenvalues --    5.50877   5.52181   5.52679   5.55176   5.57487
 Alpha virt. eigenvalues --    5.60066   5.60469   5.62836   5.65258   5.65593
 Alpha virt. eigenvalues --    5.68454   5.69421   5.71089   5.71622   5.72995
 Alpha virt. eigenvalues --    5.74906   5.76707   5.78905   5.79660   5.80549
 Alpha virt. eigenvalues --    5.82606   5.83296   5.84281   5.86751   5.88500
 Alpha virt. eigenvalues --    5.88871   5.89387   5.90600   5.91386   5.92965
 Alpha virt. eigenvalues --    5.93918   5.94660   5.94780   5.95625   5.97404
 Alpha virt. eigenvalues --    5.99121   6.00341   6.00915   6.01461   6.02729
 Alpha virt. eigenvalues --    6.03111   6.05298   6.06528   6.06947   6.08498
 Alpha virt. eigenvalues --    6.10785   6.11449   6.14765   6.22136   6.23364
 Alpha virt. eigenvalues --    6.26676   6.30961   6.32780   6.36315   6.40106
 Alpha virt. eigenvalues --    6.41602   6.42981   6.45896   6.46704   6.47232
 Alpha virt. eigenvalues --    6.48514   6.53231   6.64755   6.66312   6.76419
 Alpha virt. eigenvalues --    6.81017   6.84235   6.84610   6.85385   6.88475
 Alpha virt. eigenvalues --    6.88992   6.89657   6.91781   6.93864   6.95115
 Alpha virt. eigenvalues --    6.96489   6.97566   6.98525   6.99519   7.00281
 Alpha virt. eigenvalues --    7.00877   7.02423   7.02901   7.03534   7.04561
 Alpha virt. eigenvalues --    7.04727   7.05724   7.06149   7.07238   7.07873
 Alpha virt. eigenvalues --    7.09235   7.09759   7.11627   7.11740   7.12075
 Alpha virt. eigenvalues --    7.13672   7.14959   7.16538   7.17381   7.18127
 Alpha virt. eigenvalues --    7.20556   7.22495   7.24642   7.25066   7.27442
 Alpha virt. eigenvalues --    7.27724   7.29619   7.31655   7.31990   7.33898
 Alpha virt. eigenvalues --    7.35340   7.37574   7.40028   7.42786   7.43408
 Alpha virt. eigenvalues --    7.48100   7.49952   7.52557   7.54443   7.56727
 Alpha virt. eigenvalues --    7.59655   7.61623   7.64863   7.67039   7.68032
 Alpha virt. eigenvalues --    7.68995   7.71016   7.77002   7.77491   7.79360
 Alpha virt. eigenvalues --    7.80691   7.83604   7.86097   7.86975   7.88760
 Alpha virt. eigenvalues --    7.94996   7.97019   8.00316   8.03259   8.08029
 Alpha virt. eigenvalues --    8.08563  12.05573  23.39047  23.46312  23.59771
 Alpha virt. eigenvalues --   23.62677  23.69699  23.71105  44.26190  44.26873
 Alpha virt. eigenvalues --   44.41760  44.42775  44.44452  44.52378  44.54304
 Alpha virt. eigenvalues --   44.56740  44.75377  44.91022
          Condensed to atoms (all electrons):
               1          2          3          4          5          6
     1  Si  11.555442   0.309531   0.290986   0.456790   0.205740   0.182273
     2  O    0.309531   8.136478   0.002614  -0.050860  -0.038182  -0.058494
     3  O    0.290986   0.002614   8.021996  -0.052585  -0.042111  -0.034027
     4  O    0.456790  -0.050860  -0.052585   8.013864  -0.076085   0.001186
     5  O    0.205740  -0.038182  -0.042111  -0.076085   8.318036  -0.021655
     6  O    0.182273  -0.058494  -0.034027   0.001186  -0.021655   8.353246
     7  O    0.392757  -0.091203  -0.093406  -0.063810   0.007629  -0.020194
     8  C   -0.078896   0.010420  -0.001223  -0.005802  -0.078188   0.387947
     9  H    0.004665   0.000227  -0.000742   0.000008   0.006435  -0.034057
    10  C   -0.056070  -0.014193   0.003673  -0.000789   0.244107  -0.094872
    11  H   -0.051155   0.027308   0.007125   0.001099  -0.000181   0.002095
    12  H   -0.054588   0.306447  -0.000746   0.002471   0.006268   0.028160
    13  H   -0.042732   0.002525   0.002033   0.304932   0.010124  -0.000727
    14  H   -0.035928  -0.000085   0.312895   0.000440   0.003486   0.005086
    15  C    0.005513  -0.001302   0.012480   0.000813  -0.002282  -0.122113
    16  H   -0.000640   0.000130   0.004061  -0.000385   0.023706   0.006633
    17  O    0.000512   0.000001   0.000030  -0.000000   0.000649   0.002173
    18  H   -0.000037  -0.000001   0.000005   0.000000   0.000161  -0.000733
    19  C    0.001560   0.000225  -0.009696  -0.000001  -0.002097   0.016929
    20  H   -0.001558   0.000070   0.000577   0.000002   0.000192   0.015326
    21  H    0.000583   0.000001  -0.000687  -0.000001  -0.000000   0.001847
    22  O    0.002725  -0.000002  -0.048895  -0.000016   0.000158  -0.006911
    23  H   -0.008872  -0.000483   0.097772  -0.000090   0.000228   0.001662
    24  C    0.003820   0.005184  -0.001088  -0.000869  -0.012825   0.015576
    25  H    0.001350  -0.000138  -0.000187   0.000086   0.006811   0.001015
    26  O    0.000372  -0.000148  -0.000027   0.000025  -0.042343  -0.000476
    27  H   -0.002226   0.000449   0.000195   0.000160   0.062394   0.000067
    28  C   -0.001374   0.000410   0.000001  -0.000025   0.005615  -0.001750
    29  H    0.000226  -0.000285  -0.000002   0.000005   0.000122   0.000050
    30  H   -0.000083   0.000006   0.000000  -0.000001  -0.000288   0.000020
    31  O    0.000046  -0.000001   0.000000   0.000000  -0.000036   0.000056
    32  H   -0.000060  -0.000003  -0.000001  -0.000000  -0.000098   0.000016
    33  H    0.013172   0.032982  -0.000556   0.000557  -0.054041   0.004002
               7          8          9         10         11         12
     1  Si   0.392757  -0.078896   0.004665  -0.056070  -0.051155  -0.054588
     2  O   -0.091203   0.010420   0.000227  -0.014193   0.027308   0.306447
     3  O   -0.093406  -0.001223  -0.000742   0.003673   0.007125  -0.000746
     4  O   -0.063810  -0.005802   0.000008  -0.000789   0.001099   0.002471
     5  O    0.007629  -0.078188   0.006435   0.244107  -0.000181   0.006268
     6  O   -0.020194   0.387947  -0.034057  -0.094872   0.002095   0.028160
     7  O    8.126580  -0.004757  -0.000125  -0.001658   0.301754   0.004639
     8  C   -0.004757   5.416299   0.358380   0.054460  -0.000173   0.002991
     9  H   -0.000125   0.358380   0.824219  -0.036000   0.000032  -0.003558
    10  C   -0.001658   0.054460  -0.036000   5.473062  -0.000224  -0.006900
    11  H    0.301754  -0.000173   0.000032  -0.000224   0.588120   0.002737
    12  H    0.004639   0.002991  -0.003558  -0.006900   0.002737   0.561429
    13  H    0.003791   0.000063  -0.000021  -0.001124  -0.000527  -0.000560
    14  H    0.008223  -0.001809   0.000093   0.000505  -0.000845  -0.000310
    15  C    0.001010  -0.077884  -0.130490   0.046938   0.000045   0.003427
    16  H    0.000071  -0.011008   0.016462  -0.053943  -0.000016  -0.000091
    17  O   -0.000000  -0.052590   0.000519   0.016759  -0.000000  -0.000020
    18  H    0.000000   0.009304  -0.001616  -0.002173   0.000000   0.000007
    19  C   -0.000380   0.006977   0.002069   0.000265  -0.000028  -0.000344
    20  H    0.000093   0.005298   0.004037  -0.002101  -0.000008   0.000033
    21  H   -0.000006   0.016876   0.000032  -0.000946  -0.000001  -0.000001
    22  O   -0.000164   0.018121  -0.000242  -0.006957   0.000011   0.000048
    23  H    0.000276  -0.003599  -0.000089   0.002480  -0.000050  -0.000163
    24  C    0.000209  -0.036155   0.004000   0.018167  -0.000012  -0.000515
    25  H   -0.000006  -0.037653   0.000036  -0.041770   0.000001  -0.000063
    26  O   -0.000000   0.014747  -0.000263  -0.024179  -0.000000  -0.000059
    27  H   -0.000017   0.006707  -0.000091  -0.034894  -0.000000  -0.000115
    28  C   -0.000004   0.016413   0.002925   0.002009  -0.000001  -0.000228
    29  H   -0.000000  -0.007301  -0.001633   0.005430   0.000001  -0.000011
    30  H    0.000000   0.001307   0.000431   0.007615  -0.000000   0.000001
    31  O    0.000000   0.007168   0.002875  -0.002053   0.000000   0.000007
    32  H   -0.000000   0.001131   0.003893   0.004005  -0.000000  -0.000006
    33  H    0.000500  -0.080858  -0.007575   0.303066  -0.000315   0.001086
              13         14         15         16         17         18
     1  Si  -0.042732  -0.035928   0.005513  -0.000640   0.000512  -0.000037
     2  O    0.002525  -0.000085  -0.001302   0.000130   0.000001  -0.000001
     3  O    0.002033   0.312895   0.012480   0.004061   0.000030   0.000005
     4  O    0.304932   0.000440   0.000813  -0.000385  -0.000000   0.000000
     5  O    0.010124   0.003486  -0.002282   0.023706   0.000649   0.000161
     6  O   -0.000727   0.005086  -0.122113   0.006633   0.002173  -0.000733
     7  O    0.003791   0.008223   0.001010   0.000071  -0.000000   0.000000
     8  C    0.000063  -0.001809  -0.077884  -0.011008  -0.052590   0.009304
     9  H   -0.000021   0.000093  -0.130490   0.016462   0.000519  -0.001616
    10  C   -0.001124   0.000505   0.046938  -0.053943   0.016759  -0.002173
    11  H   -0.000527  -0.000845   0.000045  -0.000016  -0.000000   0.000000
    12  H   -0.000560  -0.000310   0.003427  -0.000091  -0.000020   0.000007
    13  H    0.597001   0.000021   0.000100  -0.000101  -0.000001  -0.000000
    14  H    0.000021   0.580114  -0.000818  -0.000035  -0.000008   0.000001
    15  C    0.000100  -0.000818   5.773927   0.349161   0.151859  -0.051364
    16  H   -0.000101  -0.000035   0.349161   0.655096  -0.053272  -0.009420
    17  O   -0.000001  -0.000008   0.151859  -0.053272   7.962130   0.319007
    18  H   -0.000000   0.000001  -0.051364  -0.009420   0.319007   0.586052
    19  C    0.000027   0.000598   0.191837  -0.021492  -0.019585  -0.000731
    20  H   -0.000000  -0.000152  -0.123001   0.015717   0.007006  -0.000747
    21  H    0.000001   0.000011  -0.014629  -0.009283   0.007921   0.003859
    22  O    0.000001   0.001095  -0.116104   0.021917   0.004532   0.000404
    23  H   -0.000091  -0.002165   0.012078  -0.000923  -0.000372  -0.000153
    24  C   -0.000544   0.000029   0.017485   0.014682  -0.019448   0.000173
    25  H   -0.000041   0.000030   0.005764  -0.010354   0.018994   0.004001
    26  O   -0.000196   0.000002  -0.002815  -0.000422   0.000280  -0.000030
    27  H    0.002946  -0.000028  -0.001547   0.000285   0.000052  -0.000009
    28  C    0.000039  -0.000002  -0.011411   0.001586   0.001154  -0.000357
    29  H   -0.000004   0.000000   0.000674   0.000053  -0.000069   0.000206
    30  H   -0.000002   0.000000  -0.000026  -0.000010  -0.000172  -0.000041
    31  O   -0.000000   0.000000  -0.003564   0.000032  -0.028208   0.003492
    32  H   -0.000000   0.000000  -0.005226   0.000595   0.052910  -0.006932
    33  H   -0.000507   0.000034   0.012420   0.001043  -0.000065   0.000261
              19         20         21         22         23         24
     1  Si   0.001560  -0.001558   0.000583   0.002725  -0.008872   0.003820
     2  O    0.000225   0.000070   0.000001  -0.000002  -0.000483   0.005184
     3  O   -0.009696   0.000577  -0.000687  -0.048895   0.097772  -0.001088
     4  O   -0.000001   0.000002  -0.000001  -0.000016  -0.000090  -0.000869
     5  O   -0.002097   0.000192  -0.000000   0.000158   0.000228  -0.012825
     6  O    0.016929   0.015326   0.001847  -0.006911   0.001662   0.015576
     7  O   -0.000380   0.000093  -0.000006  -0.000164   0.000276   0.000209
     8  C    0.006977   0.005298   0.016876   0.018121  -0.003599  -0.036155
     9  H    0.002069   0.004037   0.000032  -0.000242  -0.000089   0.004000
    10  C    0.000265  -0.002101  -0.000946  -0.006957   0.002480   0.018167
    11  H   -0.000028  -0.000008  -0.000001   0.000011  -0.000050  -0.000012
    12  H   -0.000344   0.000033  -0.000001   0.000048  -0.000163  -0.000515
    13  H    0.000027  -0.000000   0.000001   0.000001  -0.000091  -0.000544
    14  H    0.000598  -0.000152   0.000011   0.001095  -0.002165   0.000029
    15  C    0.191837  -0.123001  -0.014629  -0.116104   0.012078   0.017485
    16  H   -0.021492   0.015717  -0.009283   0.021917  -0.000923   0.014682
    17  O   -0.019585   0.007006   0.007921   0.004532  -0.000372  -0.019448
    18  H   -0.000731  -0.000747   0.003859   0.000404  -0.000153   0.000173
    19  C    4.655037   0.455215   0.306657   0.355579  -0.054161   0.002250
    20  H    0.455215   0.729715  -0.078155  -0.047278  -0.000212   0.000041
    21  H    0.306657  -0.078155   0.828427  -0.047734   0.006972   0.000120
    22  O    0.355579  -0.047278  -0.047734   8.022956   0.332784   0.000917
    23  H   -0.054161  -0.000212   0.006972   0.332784   0.374888  -0.000516
    24  C    0.002250   0.000041   0.000120   0.000917  -0.000516   5.207137
    25  H   -0.001044  -0.000301  -0.000073  -0.000396   0.000013   0.374641
    26  O   -0.000018   0.000003  -0.000001  -0.000000   0.000004   0.247034
    27  H    0.000057   0.000001  -0.000002   0.000000  -0.000021  -0.054543
    28  C    0.000118   0.000028  -0.000005  -0.000017  -0.000014   0.217783
    29  H   -0.000103  -0.000003  -0.000000   0.000000  -0.000001  -0.063197
    30  H    0.000013  -0.000001   0.000000  -0.000000   0.000000  -0.009096
    31  O   -0.000064   0.000015  -0.000001   0.000001   0.000000  -0.057892
    32  H    0.000180  -0.000171   0.000163  -0.000043   0.000012  -0.004751
    33  H   -0.001272  -0.000386   0.000066   0.000018   0.000002  -0.002513
              25         26         27         28         29         30
     1  Si   0.001350   0.000372  -0.002226  -0.001374   0.000226  -0.000083
     2  O   -0.000138  -0.000148   0.000449   0.000410  -0.000285   0.000006
     3  O   -0.000187  -0.000027   0.000195   0.000001  -0.000002   0.000000
     4  O    0.000086   0.000025   0.000160  -0.000025   0.000005  -0.000001
     5  O    0.006811  -0.042343   0.062394   0.005615   0.000122  -0.000288
     6  O    0.001015  -0.000476   0.000067  -0.001750   0.000050   0.000020
     7  O   -0.000006  -0.000000  -0.000017  -0.000004  -0.000000   0.000000
     8  C   -0.037653   0.014747   0.006707   0.016413  -0.007301   0.001307
     9  H    0.000036  -0.000263  -0.000091   0.002925  -0.001633   0.000431
    10  C   -0.041770  -0.024179  -0.034894   0.002009   0.005430   0.007615
    11  H    0.000001  -0.000000  -0.000000  -0.000001   0.000001  -0.000000
    12  H   -0.000063  -0.000059  -0.000115  -0.000228  -0.000011   0.000001
    13  H   -0.000041  -0.000196   0.002946   0.000039  -0.000004  -0.000002
    14  H    0.000030   0.000002  -0.000028  -0.000002   0.000000   0.000000
    15  C    0.005764  -0.002815  -0.001547  -0.011411   0.000674  -0.000026
    16  H   -0.010354  -0.000422   0.000285   0.001586   0.000053  -0.000010
    17  O    0.018994   0.000280   0.000052   0.001154  -0.000069  -0.000172
    18  H    0.004001  -0.000030  -0.000009  -0.000357   0.000206  -0.000041
    19  C   -0.001044  -0.000018   0.000057   0.000118  -0.000103   0.000013
    20  H   -0.000301   0.000003   0.000001   0.000028  -0.000003  -0.000001
    21  H   -0.000073  -0.000001  -0.000002  -0.000005  -0.000000   0.000000
    22  O   -0.000396  -0.000000   0.000000  -0.000017   0.000000  -0.000000
    23  H    0.000013   0.000004  -0.000021  -0.000014  -0.000001   0.000000
    24  C    0.374641   0.247034  -0.054543   0.217783  -0.063197  -0.009096
    25  H    0.766632  -0.036761   0.001177  -0.085548   0.018598  -0.010742
    26  O   -0.036761   7.982243   0.340674  -0.053758   0.008499   0.004216
    27  H    0.001177   0.340674   0.451482   0.012609  -0.000653  -0.000954
    28  C   -0.085548  -0.053758   0.012609   4.857239   0.382140   0.371577
    29  H    0.018598   0.008499  -0.000653   0.382140   0.728979  -0.061801
    30  H   -0.010742   0.004216  -0.000954   0.371577  -0.061801   0.698138
    31  O    0.013167   0.004107  -0.000513   0.276831  -0.046107  -0.039585
    32  H    0.002689  -0.000248  -0.000006  -0.049258  -0.000127   0.007375
    33  H    0.013783   0.005477   0.003560  -0.019024   0.015024  -0.001000
              31         32         33
     1  Si   0.000046  -0.000060   0.013172
     2  O   -0.000001  -0.000003   0.032982
     3  O    0.000000  -0.000001  -0.000556
     4  O    0.000000  -0.000000   0.000557
     5  O   -0.000036  -0.000098  -0.054041
     6  O    0.000056   0.000016   0.004002
     7  O    0.000000  -0.000000   0.000500
     8  C    0.007168   0.001131  -0.080858
     9  H    0.002875   0.003893  -0.007575
    10  C   -0.002053   0.004005   0.303066
    11  H    0.000000  -0.000000  -0.000315
    12  H    0.000007  -0.000006   0.001086
    13  H   -0.000000  -0.000000  -0.000507
    14  H    0.000000   0.000000   0.000034
    15  C   -0.003564  -0.005226   0.012420
    16  H    0.000032   0.000595   0.001043
    17  O   -0.028208   0.052910  -0.000065
    18  H    0.003492  -0.006932   0.000261
    19  C   -0.000064   0.000180  -0.001272
    20  H    0.000015  -0.000171  -0.000386
    21  H   -0.000001   0.000163   0.000066
    22  O    0.000001  -0.000043   0.000018
    23  H    0.000000   0.000012   0.000002
    24  C   -0.057892  -0.004751  -0.002513
    25  H    0.013167   0.002689   0.013783
    26  O    0.004107  -0.000248   0.005477
    27  H   -0.000513  -0.000006   0.003560
    28  C    0.276831  -0.049258  -0.019024
    29  H   -0.046107  -0.000127   0.015024
    30  H   -0.039585   0.007375  -0.001000
    31  O    7.967887   0.361763   0.000633
    32  H    0.361763   0.412811  -0.000601
    33  H    0.000633  -0.000601   0.775812
 Mulliken charges:
               1
     1  Si   0.906156
     2  O   -0.579628
     3  O   -0.470465
     4  O   -0.531119
     5  O   -0.531450
     6  O   -0.629353
     7  O   -0.571802
     8  C    0.143289
     9  H   -0.014835
    10  C    0.198303
    11  H    0.123210
    12  H    0.148528
    13  H    0.123576
    14  H    0.129522
    15  C    0.079044
    16  H    0.060164
    17  O   -0.372678
    18  H    0.147413
    19  C    0.115422
    20  H    0.020705
    21  H   -0.022010
    22  O   -0.486507
    23  H    0.242801
    24  C    0.134717
    25  H   -0.003712
    26  O   -0.445939
    27  H    0.212804
    28  C    0.074300
    29  H    0.021290
    30  H    0.033105
    31  O   -0.460058
    32  H    0.219989
    33  H   -0.014785
 Sum of Mulliken charges =  -2.00000
 Mulliken charges with hydrogens summed into heavy atoms:
               1
     1  Si   0.906156
     2  O   -0.431100
     3  O   -0.340942
     4  O   -0.407543
     5  O   -0.531450
     6  O   -0.629353
     7  O   -0.448591
     8  C    0.128454
    10  C    0.183519
    15  C    0.139208
    17  O   -0.225265
    19  C    0.114118
    22  O   -0.243706
    24  C    0.131006
    26  O   -0.233135
    28  C    0.128695
    31  O   -0.240069
 Electronic spatial extent (au):  <R**2>=           4445.0935
 Charge=             -2.0000 electrons
 Dipole moment (field-independent basis, Debye):
    X=              7.4680    Y=              1.9244    Z=             -0.6590  Tot=              7.7401
 Quadrupole moment (field-independent basis, Debye-Ang):
   XX=           -182.2674   YY=           -151.6533   ZZ=           -125.5092
   XY=              2.4147   XZ=             -4.5368   YZ=             -1.7957
 Traceless Quadrupole moment (field-independent basis, Debye-Ang):
   XX=            -29.1241   YY=              1.4900   ZZ=             27.6341
   XY=              2.4147   XZ=             -4.5368   YZ=             -1.7957
 Octapole moment (field-independent basis, Debye-Ang**2):
  XXX=            -23.6104  YYY=            -24.1492  ZZZ=             -1.5800  XYY=             23.0521
  XXY=             50.4528  XXZ=            -18.2520  XZZ=              7.2165  YZZ=              4.6206
  YYZ=              5.7868  XYZ=            -16.8996
 Hexadecapole moment (field-independent basis, Debye-Ang**3):
 XXXX=          -4077.4402 YYYY=          -2250.0112 ZZZZ=           -590.3556 XXXY=             -2.5587
 XXXZ=           -121.6330 YYYX=             78.8184 YYYZ=             41.0706 ZZZX=            -14.4275
 ZZZY=              1.1624 XXYY=           -964.5240 XXZZ=           -657.2376 YYZZ=           -458.7861
 XXYZ=            -70.2849 YYXZ=              5.9355 ZZXY=             17.5593
 N-N= 1.699746117556D+03 E-N=-6.466477576415D+03  KE= 1.275597795517D+03
   1 Symmetry operations used in ECPInt.
 ECPInt:  NShTT=   41041 NPrTT=  113485 LenC2=   37152 LenP2D=   76109.
 LDataN:  DoStor=T MaxTD1= 7 Len=  274
 Calling FoFJK, ICntrl=      2127 FMM=F ISym2X=0 I1Cent= 0 IOpClX= 0 NMat=1 NMatS=1 NMatT=0.
 ***** Axes restored to original set *****
 -------------------------------------------------------------------
 Center     Atomic                   Forces (Hartrees/Bohr)
 Number     Number              X              Y              Z
 -------------------------------------------------------------------
      1       14           0.003626026    0.003366549    0.002912074
      2        8          -0.000229779   -0.002303686    0.000059105
      3        8           0.000818702    0.000685058   -0.000951783
      4        8          -0.000036131    0.002405012    0.001300356
      5        8           0.000661258   -0.001510654   -0.000350791
      6        8          -0.003585650   -0.002383451   -0.004328779
      7        8           0.001035383   -0.000035624    0.004729804
      8        6          -0.001504505   -0.000513517   -0.000937580
      9        1          -0.000230825    0.000051946    0.000072354
     10        6           0.000268371   -0.000581363   -0.000249658
     11        1           0.001013439    0.002134932   -0.003029706
     12        1          -0.000123853   -0.000147256    0.000179690
     13        1          -0.000045950    0.000059481    0.000118145
     14        1          -0.000047634   -0.000186186   -0.000217360
     15        6          -0.000788685   -0.000286802   -0.000196213
     16        1          -0.000019413    0.000008035   -0.000024308
     17        8          -0.001183489   -0.000501454    0.001053682
     18        1          -0.000020982   -0.000013281    0.000069246
     19        6          -0.000808113   -0.000258003   -0.000091704
     20        1          -0.000050733   -0.000011528   -0.000006400
     21        1          -0.000036711   -0.000016339    0.000028024
     22        8          -0.000657406    0.000158857   -0.000366078
     23        1          -0.000065965   -0.000002536   -0.000054642
     24        6           0.000521677   -0.000134240   -0.000100108
     25        1           0.000009721   -0.000033646    0.000011210
     26        8           0.000880214   -0.000160104   -0.000201226
     27        1          -0.000003613    0.000020749    0.000000806
     28        6           0.000457309   -0.000069762   -0.000068059
     29        1           0.000029567   -0.000035653   -0.000015445
     30        1           0.000057979    0.000020530   -0.000018119
     31        8           0.000007180    0.000287559    0.000653268
     32        1          -0.000014746    0.000009161    0.000037894
     33        1           0.000067356   -0.000022784   -0.000017696
 -------------------------------------------------------------------
 Cartesian Forces:  Max     0.004729804 RMS     0.001176431

 GradGradGradGradGradGradGradGradGradGradGradGradGradGradGradGradGradGrad
 Berny optimization.
 FormGI is forming the generalized inverse of G from B-inverse, IUseBI=4.
 Internal  Forces:  Max     0.042126743 RMS     0.004599815
 Search for a local minimum.
 Step number   1 out of a maximum of  175
 All quantities printed in internal units (Hartrees-Bohrs-Radians)
 Mixed Optimization -- RFO/linear search
 Second derivative matrix not updated -- first step.
 ITU=  0
     Eigenvalues ---    0.00230   0.00230   0.00275   0.00399   0.00424
     Eigenvalues ---    0.00964   0.01414   0.01454   0.01507   0.01742
     Eigenvalues ---    0.01918   0.01942   0.02083   0.02258   0.02418
     Eigenvalues ---    0.03455   0.04006   0.04212   0.04527   0.04665
     Eigenvalues ---    0.04682   0.04796   0.04886   0.04948   0.05045
     Eigenvalues ---    0.06016   0.06061   0.06490   0.06791   0.07274
     Eigenvalues ---    0.07757   0.08349   0.08893   0.10846   0.11260
     Eigenvalues ---    0.11648   0.11805   0.14016   0.14119   0.15703
     Eigenvalues ---    0.16000   0.16000   0.16000   0.16000   0.16000
     Eigenvalues ---    0.16000   0.16000   0.16000   0.16181   0.16606
     Eigenvalues ---    0.16882   0.16987   0.18304   0.19395   0.19758
     Eigenvalues ---    0.19793   0.20403   0.22089   0.22097   0.23479
     Eigenvalues ---    0.24742   0.25000   0.27503   0.27880   0.27889
     Eigenvalues ---    0.28578   0.28773   0.29635   0.29785   0.29807
     Eigenvalues ---    0.30955   0.32257   0.33063   0.33597   0.33696
     Eigenvalues ---    0.33803   0.33836   0.34290   0.34356   0.37600
     Eigenvalues ---    0.42308   0.43384   0.46251   0.48426   0.48904
     Eigenvalues ---    0.51578   0.52613   0.53327   0.55880   0.55896
     Eigenvalues ---    0.56194   0.56555   0.56830
 RFO step:  Lambda=-1.93903742D-02 EMin= 2.30000000D-03
 Linear search not attempted -- first point.
 Iteration  1 RMS(Cart)=  0.25724455 RMS(Int)=  0.01367157
 Iteration  2 RMS(Cart)=  0.07391017 RMS(Int)=  0.00100184
 Iteration  3 RMS(Cart)=  0.00162167 RMS(Int)=  0.00043821
 Iteration  4 RMS(Cart)=  0.00000149 RMS(Int)=  0.00043821
 Iteration  5 RMS(Cart)=  0.00000000 RMS(Int)=  0.00043821
 Variable       Old X    -DE/DX   Delta X   Delta X   Delta X     New X
                                 (Linear)    (Quad)   (Total)
    R1        3.34592   0.00153   0.00000   0.00502   0.00502   3.35094
    R2        3.36939   0.00117   0.00000   0.00399   0.00399   3.37337
    R3        3.29798  -0.00247   0.00000  -0.00752  -0.00752   3.29046
    R4        3.43570  -0.00167   0.00000  -0.00626  -0.00626   3.42944
    R5        3.32093  -0.00029   0.00000  -0.00092  -0.00092   3.32001
    R6        1.81058  -0.00004   0.00000  -0.00008  -0.00008   1.81050
    R7        1.80786  -0.00002   0.00000  -0.00003  -0.00003   1.80782
    R8        1.80241  -0.00011   0.00000  -0.00019  -0.00019   1.80222
    R9        2.60987  -0.00867   0.00000  -0.01705  -0.01705   2.59282
   R10        2.58306   0.00188   0.00000   0.00351   0.00351   2.58656
   R11        1.81044  -0.00384   0.00000  -0.00664  -0.00664   1.80380
   R12        2.10377  -0.00009   0.00000  -0.00025  -0.00025   2.10352
   R13        2.92401  -0.00477   0.00000  -0.01601  -0.01601   2.90800
   R14        2.92382  -0.00201   0.00000  -0.00674  -0.00674   2.91708
   R15        2.90479   0.00143   0.00000   0.00465   0.00465   2.90944
   R16        2.08941  -0.00001   0.00000  -0.00002  -0.00002   2.08940
   R17        2.06843   0.00002   0.00000   0.00006   0.00006   2.06849
   R18        2.74952  -0.00115   0.00000  -0.00292  -0.00292   2.74660
   R19        2.88697   0.00053   0.00000   0.00168   0.00168   2.88865
   R20        1.80476  -0.00007   0.00000  -0.00013  -0.00013   1.80463
   R21        2.07607   0.00000   0.00000   0.00001   0.00001   2.07608
   R22        2.08015  -0.00004   0.00000  -0.00012  -0.00012   2.08003
   R23        2.63849   0.00085   0.00000   0.00176   0.00176   2.64025
   R24        1.88188   0.00003   0.00000   0.00007   0.00007   1.88195
   R25        2.07846  -0.00003   0.00000  -0.00008  -0.00008   2.07838
   R26        2.68533  -0.00002   0.00000  -0.00005  -0.00005   2.68528
   R27        2.88351   0.00073   0.00000   0.00230   0.00230   2.88581
   R28        1.84016   0.00001   0.00000   0.00001   0.00001   1.84017
   R29        2.07663  -0.00001   0.00000  -0.00002  -0.00002   2.07661
   R30        2.06733   0.00002   0.00000   0.00006   0.00006   2.06740
   R31        2.67199   0.00030   0.00000   0.00067   0.00067   2.67266
   R32        1.83350   0.00001   0.00000   0.00002   0.00002   1.83352
    A1        1.65847  -0.00120   0.00000  -0.01026  -0.01023   1.64824
    A2        1.63436  -0.00035   0.00000  -0.00422  -0.00403   1.63033
    A3        1.57726   0.00014   0.00000   0.00023   0.00036   1.57761
    A4        1.70383  -0.00034   0.00000  -0.00705  -0.00701   1.69682
    A5        1.55035  -0.00136   0.00000  -0.00918  -0.00881   1.54155
    A6        1.50361   0.00053   0.00000   0.00148   0.00179   1.50540
    A7        1.56161   0.00390   0.00000   0.03657   0.03656   1.59818
    A8        1.66248   0.00137   0.00000   0.02337   0.02338   1.68586
[...]
 95,-0.00219213,-0.00121537,-0.00056718,-0.00016596,-0.00038667,-0.0000
 7164,0.00173698,0.00027271,0.00139978,-0.00040832,-0.00056507,-0.00138
 979,0.00670569,0.00033257,0.00904221,-0.00004780,0.00009515,0.00003894
 ,-0.00004667,0.00034828,-0.00004791,-0.00011262,-0.00006024,0.00000687
 ,-0.00006517,0.00018818,-0.00014099,0.00421518,-0.00022874,0.00065038,
 -0.00034141,0.00023224,-0.00064134,-0.00407020,0.00349964,-0.00119327,
 0.00004665,-0.00008387,0.00022769,-0.00008326,-0.00023690,-0.00004520,
 -0.00001115,0.00002122,0.00002206,-0.00007933,-0.00030495,0.00001781,-
 0.00100680,-0.00013640,-0.00040666,0.00047085,0.00070447,0.00012006,0.
 03858963,-0.08766869,0.02478715,0.01941568,-0.00693973,0.01451140,-0.0
 3382833,-0.00568509,-0.02409130,-0.00141148,-0.00428015,-0.00518231,-0
 .02745882,0.54849908,-0.00173642,0.00187918,0.00171118,0.00024147,0.00
 023606,-0.00074765,0.00011463,-0.00074114,0.00011966,0.00088898,0.0000
 6727,0.00000045,0.00826600,-0.00215090,-0.00221531,-0.00069076,-0.0010
 1011,-0.00076990,0.00004431,-0.00017343,-0.00016850,0.00113465,0.00102
 810,0.00048951,-0.00038174,-0.00059705,-0.00088896,0.00700986,0.000575
 79,0.01619205,-0.00000599,0.00003879,0.00002448,0.00000552,-0.00003975
 ,0.00008787,-0.00012299,-0.00008368,0.00008011,-0.00005276,0.00016759,
 -0.00014469,0.00088950,0.00061679,-0.00038669,-0.00009146,0.00020720,0
 .00000389,-0.00228014,0.00132533,-0.00073031,0.00002131,0.00001560,0.0
 0010222,0.00003521,-0.00012475,0.00017434,-0.00001371,0.00006788,0.000
 00895,-0.00004365,-0.00010745,0.00001234,-0.00043407,-0.00015045,-0.00
 017575,0.00025561,0.00040445,0.00005765,-0.04015166,0.02609724,-0.1103
 6202,-0.02127862,0.00824911,-0.01310660,-0.01664880,-0.00628121,-0.012
 42146,0.00037372,-0.00104655,-0.00168905,-0.05195719,-0.01646314,0.553
 02237,-0.00025808,0.00008389,-0.00008609,0.00011556,0.00001351,-0.0000
 2919,0.00003356,-0.00003705,0.00005349,0.00009054,0.00002618,0.0000452
 4,0.00030826,-0.00026785,0.00077540,0.00011326,0.00002465,0.00005556,0
 .00006902,-0.00003196,-0.00000155,-0.00030899,-0.00004860,0.00001900,0
 .00000911,0.00001587,0.00010221,0.00074974,0.00159671,-0.00224497,-0.0
 0001786,0.00001105,0.00000556,-0.00004524,0.00000326,0.00005865,-0.000
 01734,-0.00001553,-0.00000932,0.00000255,0.00001654,-0.00002095,-0.000
 25451,-0.00009008,-0.00028902,0.00006116,-0.00000936,0.00018696,0.0005
 0065,-0.00024166,0.00015782,-0.00005649,-0.00004139,-0.00003162,0.0000
 4460,0.00003946,0.00011768,-0.00000442,0.00003029,-0.00000044,-0.00000
 789,0.00001354,0.00000431,0.00006646,-0.00004169,0.00003600,-0.0000066
 0,-0.00000617,-0.00001379,0.00563168,0.01628147,-0.02225936,-0.0037780
 2,0.00117680,-0.00284632,0.00093792,0.00010647,0.00180327,0.00008615,-
 0.00005215,0.00008873,-0.06450635,-0.03147056,0.05009014,0.07206888,-0
 .00003971,-0.00035132,0.00020341,-0.00007616,0.00019725,-0.00013123,0.
 00005610,0.00018811,-0.00007343,-0.00000357,0.00004299,-0.00005180,-0.
 00017530,0.00031205,-0.00081286,0.00015517,0.00017475,-0.00013281,0.00
 000092,0.00006956,-0.00003714,0.00001115,-0.00008395,-0.00002431,-0.00
 006733,-0.00002348,-0.00004002,-0.00134865,-0.00032402,0.00143364,0.00
 002246,-0.00001725,-0.00000633,0.00004649,-0.00008667,0.00000546,0.000
 01204,0.00001150,0.00001979,-0.00002095,-0.00003769,0.00001988,-0.0008
 0378,-0.00006770,0.00011923,0.00005880,0.00000735,-0.00009457,0.001282
 18,-0.00077427,0.00000678,-0.00005027,0.00017539,-0.00001006,0.0000034
 6,0.00007714,-0.00002281,0.00002020,-0.00004746,-0.00002811,0.00001849
 ,0.00006193,-0.00000817,0.00020915,0.00000637,0.00003725,-0.00010780,-
 0.00012630,-0.00000003,-0.00211065,-0.00636286,0.00973456,0.00132909,-
 0.00035832,0.00102695,0.00094520,0.00186182,-0.00014127,-0.00018190,0.
 00007041,0.00045440,-0.02781640,-0.11847847,0.10364005,0.04254770,0.14
 509341,0.00034559,0.00026605,-0.00018744,-0.00000371,-0.00023427,0.000
 16871,-0.00008389,-0.00011011,0.00005021,-0.00008802,-0.00007400,0.000
 02083,-0.00018505,-0.00038724,0.00046237,-0.00027975,0.00005987,0.0000
 9057,-0.00006069,-0.00005111,0.00004412,-0.00006756,-0.00025940,0.0001
 3949,0.00003388,0.00000202,0.00002483,0.00252994,-0.00048540,-0.000419
 53,-0.00001018,0.00001045,0.00000497,-0.00001061,0.00008945,-0.0000296
 6,0.00000383,0.00001016,-0.00001526,0.00005593,0.00001767,-0.00000873,
 0.00011339,-0.00017029,-0.00019651,0.00008595,-0.00004939,0.00014895,0
 .00001239,0.00008623,0.00022446,-0.00002999,-0.00015345,-0.00006118,0.
 00005067,-0.00005452,0.00008867,-0.00002011,0.00004543,0.00001969,0.00
 000387,-0.00000165,0.00000054,-0.00009456,0.00001259,-0.00000427,0.000
 06630,0.00003834,-0.00000478,0.00443972,0.01353789,-0.01475322,-0.0032
 5675,0.00015634,-0.00148204,-0.00040526,-0.00173935,0.00160783,0.00013
 234,0.00001680,-0.00013766,0.04936942,0.10711038,-0.20465846,-0.051474
 34,-0.11607300,0.21554485,0.00127782,-0.00061125,-0.00035567,-0.000313
 99,-0.00009835,0.00024677,-0.00021001,0.00033666,-0.00020970,-0.000499
 73,-0.00015141,-0.00016415,-0.00317493,0.00052522,0.00019446,-0.000320
 07,0.00034732,0.00015589,-0.00020452,0.00009859,0.00003617,-0.00002940
 ,-0.00047317,-0.00009431,0.00002098,0.00008198,0.00006128,-0.00023888,
 0.00013513,-0.00527522,0.00004609,-0.00002747,-0.00000771,0.00007499,-
 0.00000262,-0.00008656,0.00007141,0.00006741,0.00002801,0.00006449,-0.
 00006212,0.00011587,-0.00031303,-0.00010400,0.00012288,0.00001172,-0.0
 0003524,0.00000171,0.00036877,-0.00009366,0.00018104,0.00000962,-0.000
 02167,0.00001340,0.00008005,-0.00002927,-0.00001965,-0.00000862,-0.000
 02344,0.00000277,0.00003013,0.00007702,-0.00001135,0.00001433,0.000121
 78,-0.00003633,-0.00004049,-0.00014265,0.00000522,-0.02047302,0.013156
 76,0.01863882,0.00099591,0.00011676,-0.00036476,0.00291598,-0.00042177
 ,0.00017895,-0.00046564,0.00027438,0.00041159,-0.14983983,0.07992457,0
 .09401299,-0.00450052,0.00447940,0.00505866,0.15983858,-0.00049349,-0.
 00004805,0.00002056,0.00008814,0.00012584,-0.00010695,0.00009980,0.000
 00470,0.00007137,0.00017305,0.00007289,0.00005718,0.00068822,0.0002716
 4,-0.00021117,0.00044437,-0.00004124,-0.00001597,0.00011470,-0.0000014
 3,-0.00001382,-0.00010437,0.00020765,-0.00012791,-0.00000652,0.0000269
 4,0.00011376,-0.00081359,-0.00040025,0.00233746,-0.00001376,0.00000127
 ,-0.00000069,-0.00001414,-0.00004734,0.00003800,-0.00002532,-0.0000202
 8,-0.00000721,-0.00002950,0.00000496,-0.00003183,-0.00046073,-0.000058
 67,-0.00002889,0.00006084,0.00001063,0.00002652,0.00068804,-0.00060086
 ,0.00041467,0.00009913,-0.00005874,0.00000544,-0.00002509,0.00006727,-
 0.00002552,0.00001066,-0.00000783,-0.00000706,-0.00000314,0.00000471,0
 .00000345,0.00014851,-0.00005005,0.00007771,-0.00005540,-0.00003079,-0
 .00001631,0.00925588,-0.00487257,-0.00780145,-0.00028248,-0.00003823,-
 0.00002503,-0.00267108,0.00107080,0.00045938,0.00023013,-0.00028864,-0
 .00021934,0.07741408,-0.10280609,-0.06370567,-0.00994317,0.01008015,0.
 01046972,-0.08074568,0.12877443,-0.00007180,-0.00031748,-0.00032537,0.
 00009311,-0.00001521,0.00009489,0.00007386,0.00006837,0.00003551,-0.00
 004685,0.00002476,0.00002962,-0.00161733,0.00022592,0.00071168,0.00033
 777,0.00011488,0.00009655,0.00009333,-0.00000436,0.00001682,-0.0002979
 2,-0.00011706,0.00002242,0.00006308,0.00009787,0.00017058,-0.00042930,
 -0.00014288,-0.00323905,-0.00002083,0.00000436,-0.00000242,-0.00005390
 ,0.00000828,0.00003483,-0.00000919,-0.00000203,-0.00002206,-0.00002301
 ,-0.00001181,-0.00000829,-0.00024030,-0.00008470,-0.00002524,0.0000115
 5,-0.00001998,0.00003298,0.00038042,-0.00036841,0.00019632,0.00003964,
 0.00002089,0.00000387,-0.00003615,0.00005078,-0.00001626,0.00000795,-0
 .00000571,-0.00000578,-0.00000555,-0.00000013,0.00000255,0.00013047,-0
 .00002694,0.00005961,-0.00005855,-0.00004538,-0.00001586,-0.01388408,0
 .00823176,0.00922009,0.00073318,-0.00022350,0.00081863,0.00075754,0.00
 155786,0.00158146,0.00003783,0.00026740,0.00016609,0.09499843,-0.06660
 251,-0.13619868,0.01907259,-0.01134647,-0.01552413,-0.09782561,0.08342
 144,0.14584719,0.00202936,-0.00001280,0.00011187,-0.00053765,-0.000194
 21,0.00032908,-0.00038922,0.00030657,-0.00033612,-0.00050506,-0.000109
 32,-0.00010208,-0.00095036,0.00056910,-0.00005196,-0.00160103,0.000397
 63,-0.00000254,-0.00054680,0.00017078,0.00009905,0.00039400,-0.0002755
 8,0.00056034,-0.00070675,-0.00020806,-0.00063438,0.00153320,0.00082234
 ,0.00156174,0.00009059,-0.00005318,-0.00001984,0.00015655,0.00006094,-
 0.00019919,0.00015473,0.00005601,-0.00000144,0.00013590,-0.00008377,0.
 00012745,0.00075915,-0.00003070,0.00030625,0.00000977,0.00000905,-0.00
 006811,0.00075009,0.00755423,-0.00307775,-0.00178951,0.00137470,0.0000
 3912,0.00000301,-0.00029198,-0.00005710,-0.00007857,0.00000702,0.00007
 376,0.00009482,0.00006636,-0.00006078,-0.00032243,0.00035540,-0.000140
 11,0.00004747,-0.00016862,0.00003087,-0.00770701,-0.03389234,-0.006731
 50,0.00181941,0.00040764,0.00065001,-0.00909554,-0.00017908,-0.0055689
 8,0.00107907,-0.00161982,-0.00192508,-0.12367587,-0.03053531,-0.035303
 22,-0.00417956,-0.01453417,-0.00486677,0.01503467,0.00799045,-0.001232
 51,0.30771617,0.00056554,-0.00329121,-0.00084359,-0.00034318,0.0008799
 1,0.00010839,0.00038998,0.00140963,-0.00009290,-0.00035126,0.00045522,
 0.00010658,-0.00315313,0.00279395,0.00078074,0.00209457,0.00234015,0.0
 0033665,0.00017275,0.00048790,0.00004214,-0.00243263,-0.00202824,-0.00
 072404,0.00057253,0.00033108,0.00099509,0.00100720,-0.00111834,-0.0002
 1722,0.00005731,-0.00010881,-0.00005550,0.00009041,-0.00037828,0.00001
 913,0.00016674,0.00004113,-0.00008184,0.00000489,-0.00031111,0.0000961
 9,-0.00689138,-0.00278002,-0.00030309,0.00082434,-0.00020616,0.0004867
 4,0.01341848,-0.01070088,0.00646525,0.00123516,-0.00072182,-0.00052738
 ,0.00044647,0.00074759,0.00001300,0.00011987,-0.00023767,-0.00015624,0
 .00009816,0.00058848,-0.00001275,0.00194906,0.00000992,0.00066997,-0.0
 0085220,-0.00117669,-0.00014283,-0.00126262,-0.00813501,0.00030509,0.0
 0092181,0.00255072,-0.00191538,-0.00452659,0.00365516,-0.00076526,0.00
 206438,-0.00086507,-0.00086595,-0.07530654,-0.18805573,-0.05368446,-0.
 01938202,-0.03120924,-0.01021692,-0.01497022,-0.03106583,-0.01549625,-
 0.11462443,0.58571330,0.00048257,-0.00088799,-0.00112824,-0.00014522,0
 .00004576,0.00035629,-0.00011780,0.00013707,0.00020032,-0.00023124,0.0
 0007385,0.00018197,-0.00114247,0.00135933,0.00135725,0.00121600,0.0006
 1676,0.00097261,0.00004353,0.00012206,0.00015739,-0.00196903,-0.000588
 55,-0.00241890,0.00081622,0.00049369,0.00151690,0.00014966,-0.00081632
 ,-0.00107301,-0.00000224,-0.00003747,-0.00001896,0.00000383,-0.0000524
 9,-0.00007116,0.00007955,-0.00000209,-0.00007913,0.00008401,-0.0000578
 7,0.00005162,0.00134911,0.00088403,0.00040536,0.00007994,-0.00021429,0
 .00027225,-0.00326712,0.00426722,0.00178464,0.00031935,-0.00103228,0.0
 0024869,-0.00023973,-0.00008449,-0.00015433,-0.00008629,0.00010537,0.0
 0013258,0.00000084,-0.00008113,-0.00002316,-0.00012393,0.00015126,0.00
 012447,0.00001567,-0.00004929,-0.00006454,-0.00592220,-0.02087774,-0.0
 0591951,0.00215008,-0.00147360,0.00187436,-0.00948742,-0.00093864,-0.0
 0190692,0.00112088,-0.00170851,-0.00172779,-0.03857881,-0.02742150,-0.
 08582241,0.00510054,0.01176404,0.01751482,-0.01282493,-0.01919333,-0.0
 0170264,0.12419218,0.00453394,0.10252959,-0.00134258,-0.00131149,-0.00
 044992,0.00025159,0.00054125,-0.00022303,0.00044803,0.00031121,0.00023
 866,0.00027401,0.00028292,0.00014894,0.00009189,0.00121578,0.00041437,
 0.00215424,0.00083775,0.00015329,0.00049239,0.00007380,-0.00004840,-0.
 00265344,-0.00021387,-0.00029994,-0.00019743,0.00028229,0.00120761,-0.
 00066701,-0.00162858,0.00028332,-0.00004192,-0.00000700,-0.00000710,-0
 .00006198,-0.00021440,0.00015530,-0.00003625,-0.00003187,-0.00004166,-
 0.00009525,-0.00007341,-0.00006389,-0.00484561,0.00173638,-0.00119032,
 0.00031764,-0.00006086,0.00022517,-0.00584738,-0.00199044,0.00286645,0
 .00308279,-0.00258411,0.00031700,-0.00012121,0.00027439,-0.00004580,0.
 00011572,-0.00006972,-0.00010964,-0.00002973,0.00012407,0.00002879,0.0
 0089599,-0.00018356,0.00035098,-0.00035088,-0.00029802,-0.00007704,0.0
 0136919,-0.00487203,-0.00086877,0.00029773,-0.00000360,-0.00103834,-0.
 00176756,0.00137733,-0.00018462,0.00046834,-0.00043562,-0.00037529,0.0
 1197765,-0.02125835,0.00525105,-0.00258704,-0.00457660,-0.00062627,-0.
 00053315,-0.00187717,-0.00076626,-0.17974704,0.21771375,-0.06251653,0.
 17858743,-0.00033664,0.00238972,0.00025350,0.00018859,-0.00062439,0.00
 000405,-0.00049308,-0.00126496,0.00019938,0.00022497,-0.00036614,-0.00
 003846,0.00205907,-0.00166289,-0.00031330,-0.00103726,-0.00207768,0.00
 042549,-0.00014945,-0.00032780,0.00003967,0.00076394,0.00246798,-0.001
 27614,0.00022526,0.00025702,0.00013239,-0.00201781,0.00093590,0.000214
 80,-0.00003290,0.00006380,0.00003909,-0.00007806,0.00025470,-0.0000427
 3,-0.00010461,-0.00004895,0.00005198,0.00005357,0.00025865,-0.00002878
 ,0.00882594,0.00404006,0.00005024,-0.00133578,0.00002218,-0.00038973,-
 0.00624976,-0.00477867,-0.00191568,-0.00185798,0.00044247,0.00037330,-
 0.00064143,-0.00100576,-0.00020336,-0.00017720,0.00031755,0.00024771,-
 0.00004433,-0.00058725,0.00001560,-0.00214973,0.00023665,-0.00067768,0
 .00089415,0.00113330,0.00010245,-0.00155015,0.00451661,-0.00197435,-0.
 00083133,0.00013991,0.00009319,0.00365606,0.00021031,0.00157963,-0.000
 90350,0.00081517,0.00066660,0.01151226,-0.03677754,0.00218637,0.000282
 45,-0.00054100,-0.00147727,-0.00173996,-0.00054324,0.00111676,0.176574
 52,-0.32046455,0.05119702,-0.18357034,0.35322706,0.00006508,0.00005911
 ,0.00066267,0.00000661,0.00004608,-0.00014063,0.00018115,0.00033292,-0
 .00026666,0.00004954,0.00005472,-0.00008043,0.00000920,-0.00008837,-0.
 00058292,-0.00104144,0.00009809,-0.00090524,-0.00006477,0.00001613,-0.
 00008785,0.00183429,-0.00019060,0.00319124,-0.00039833,-0.00036945,-0.
 00172207,-0.00045320,0.00050947,0.00042616,0.00001203,0.00000677,-0.00
 000294,0.00002139,0.00000994,0.00002766,-0.00000414,0.00001381,0.00001
 811,-0.00007281,-0.00004755,-0.00002176,-0.00404831,-0.00153626,-0.000
 65867,0.00010665,0.00018909,-0.00021013,0.00533808,-0.00278776,-0.0036
 1799,-0.00118575,0.00265613,-0.00114838,0.00042213,0.00029863,0.000200
 34,0.00012884,-0.00019684,-0.00021587,0.00002359,0.00024158,0.00001712
 ,0.00072142,-0.00013662,0.00008419,-0.00027831,-0.00033095,0.00002011,
 -0.00115004,-0.00424617,0.00294781,-0.00017212,0.00066237,-0.00206820,
 0.00035546,0.00176381,-0.00034662,-0.00018453,0.00014138,0.00009052,0.
 01070936,-0.01472838,-0.00116448,0.00091800,0.00163447,-0.00003314,-0.
 00188753,-0.00556563,-0.00283531,-0.06782639,0.07191041,-0.02800864,0.
 05759987,-0.05076412,0.03684821,0.00240065,0.00068678,-0.00455301,0.00
 112674,-0.00127076,0.00072801,-0.00093553,0.00117322,0.00000428,-0.000
 46829,-0.00022156,0.00067029,-0.01224489,0.01499027,-0.03496309,0.0004
 2535,0.00010219,0.00021415,0.00007851,-0.00038449,0.00035800,0.0015731
 0,0.00116433,-0.00088966,0.00013160,-0.00037569,0.00023589,-0.04400834
 ,-0.00618243,0.01509870,-0.00021641,0.00014056,0.00005848,-0.00138772,
 0.00071086,0.00089792,0.00001890,-0.00004842,-0.00021992,0.00039842,-0
 .00041077,0.00051598,-0.00012950,-0.00012736,0.00044756,-0.00014963,-0
 .00002677,-0.00011068,0.00037627,-0.00006964,-0.00012168,-0.00000980,0
 .00013182,0.00004742,-0.00016608,0.00007221,-0.00012685,0.00003408,-0.
 00002595,-0.00001807,0.00003960,0.00003427,-0.00002464,0.00026460,0.00
 025812,0.00010048,-0.00023139,-0.00041636,-0.00007753,-0.00728464,-0.0
 1558958,0.02157356,-0.00363605,0.00112331,0.00328224,0.00180204,0.0005
 0308,-0.00171886,-0.00095075,0.00074601,0.00022656,0.00037534,-0.00201
 844,0.00255820,-0.00036019,0.00071525,-0.00073838,0.00031027,0.0000586
 5,-0.00021158,0.00002444,0.00018280,-0.00054901,0.00010081,0.00004052,
 0.00026497,0.06269850,-0.00154725,-0.00005444,0.00258679,-0.00085736,0
 .00085753,-0.00128214,0.00048426,0.00011494,-0.00014262,0.00065940,0.0
 0013912,-0.00027161,0.00695031,0.01141578,-0.00033630,-0.00066982,0.00
 298094,-0.00146069,0.00008716,0.00019236,-0.00028264,-0.00517106,-0.02
 445148,0.02481674,-0.00089759,0.00063676,-0.00042271,-0.00930108,-0.13
 403662,0.09695061,0.00009160,-0.00006306,-0.00001590,0.00105997,-0.000
 57954,-0.00045567,-0.00015290,-0.00004068,0.00014907,-0.00021481,0.000
 01859,-0.00018963,0.00309509,-0.00463779,-0.00397671,0.00014480,0.0005
 6886,0.00003769,-0.00071850,0.00033945,-0.00017312,-0.00003828,-0.0000
 7160,0.00002289,-0.00141766,-0.00050660,0.00121225,0.00007538,-0.00000
 516,-0.00007598,0.00006651,-0.00063825,-0.00004746,0.00068094,-0.00021
 990,0.00020776,-0.00031319,-0.00017850,0.00002791,0.00274902,0.0015572
 1,-0.00434937,0.00071342,0.00008069,-0.00074263,-0.00051501,0.00157020
 ,0.00067978,0.00054947,-0.00049851,-0.00023761,0.00007205,0.00016088,-
 0.00044309,-0.00059058,0.00045980,-0.00039203,0.00001096,0.00025626,-0
 .00038053,0.00009066,0.00085051,-0.00023381,0.00049009,-0.00065825,0.0
 0034377,0.00433398,0.14444052,0.00486537,-0.00156209,-0.00555852,0.001
 40459,-0.00148935,0.00195300,-0.00113665,0.00166265,-0.00004725,-0.001
 29418,-0.00031867,0.00046566,-0.02535177,0.00801060,-0.02731997,-0.000
 75285,0.00066885,0.00149351,-0.00009190,-0.00012131,0.00054459,0.00044
 157,-0.00776740,0.00596803,0.00016648,0.00082339,0.00150254,0.01789422
 ,0.10032086,-0.16649908,-0.00013267,0.00006565,0.00001997,-0.00017345,
 0.00070272,0.00038322,0.00020680,0.00015128,-0.00025358,0.00053917,-0.
 00047412,0.00075161,0.00109128,-0.00228397,0.00015528,-0.00005242,-0.0
 0035138,0.00022517,0.00022498,0.00026789,0.00021173,-0.00002392,-0.000
 15652,-0.00007995,-0.00056595,-0.00036660,0.00018427,-0.00002312,0.000
 02651,0.00005743,0.00007647,-0.00017099,-0.00000649,0.00043942,0.00045
 252,0.00020996,-0.00037393,-0.00070850,-0.00015584,0.00585166,0.015501
 12,-0.01692634,0.00258391,-0.00116604,-0.00211989,0.00019410,-0.001441
 12,0.00232309,-0.00168515,0.00149685,-0.00047971,-0.00149122,0.0014838
 7,-0.00043612,0.00061580,-0.00106551,0.00136006,-0.00030300,-0.0004128
 9,0.00077940,0.00012413,-0.00076770,0.00043824,-0.00030799,0.00011238,
 -0.00041621,-0.00295974,-0.11112302,0.20127219\\0.00000476,0.00000584,
 -0.00001306,-0.00000087,-0.00000566,0.00000360,-0.00000074,-0.00000444
 ,0.00000243,0.00000329,-0.00000072,-0.00000067,-0.00000086,0.00000039,
 -0.00000050,0.00000169,-0.00000241,-0.00000099,-0.00000225,-0.00000184
 ,-0.00000008,-0.00000598,0.00000107,0.00000290,-0.00000160,-0.00000003
 ,0.00000057,0.00000312,0.00000036,0.00000109,-0.00000135,-0.00000563,-
 0.00000390,-0.00000029,-0.00000259,-0.00000250,0.00000242,-0.00000277,
 -0.00000301,0.00000120,-0.00000162,-0.00000189,-0.00000128,0.00000322,
 0.00000048,-0.00000034,0.00000026,0.00000032,-0.00000095,-0.00000198,0
 .00000115,-0.00000158,0.00000442,0.00000341,-0.00000545,-0.00000157,-0
 .00000232,-0.00000232,-0.00000058,0.00000180,-0.00000244,0.00000180,0.
 00000292,0.00000488,0.00000362,0.00000116,-0.00000428,-0.00000520,0.00
 000155,0.00000229,0.00000351,0.00000140,0.00000198,0.00000146,0.000001
 04,0.00000249,0.00000011,-0.00000151,0.00000044,-0.00000111,-0.0000026
 4,0.00000122,0.00000468,0.00000215,0.00000117,0.00000133,0.00000064,0.
 00000227,0.00000325,0.00000130,-0.00000024,0.00000171,0.00000230,-0.00
 000076,0.00000180,0.00000124,0.00000035,-0.00000070,-0.00000040\\\@
 The archive entry for this job was punched.


 IT IS A SIMPLE TASK TO MAKE THINGS COMPLEX,
 BUT A COMPLEX TASK TO MAKE THEM SIMPLE.
 Job cpu time:       2 days  1 hours 27 minutes 44.4 seconds.
 Elapsed time:       0 days 12 hours 22 minutes  8.1 seconds.
 File lengths (MBytes):  RWF=   1379 Int=      0 D2E=      0 Chk=     47 Scr=      1
 Normal termination of Gaussian 16 at Wed Feb 21 05:47:29 2024.
