 Entering Gaussian System, Link 0=/opt/software/gaussian/g16.c01/g16
 Initial command:
 /opt/software/gaussian/g16.c01/l1.exe "/scratch/arhender/25191862/Gau-4123.inp" -scrdir="/scratch/arhender/25191862/"
 Entering Link 1 = /opt/software/gaussian/g16.c01/l1.exe PID=      4124.
  
 Copyright (c) 1988-2019, Gaussian, Inc.  All Rights Reserved.
  
 This is part of the Gaussian(R) 16 program.  It is based on
 the Gaussian(R) 09 system (copyright 2009, Gaussian, Inc.),
 the Gaussian(R) 03 system (copyright 2003, Gaussian, Inc.),
 the Gaussian(R) 98 system (copyright 1998, Gaussian, Inc.),
 the Gaussian(R) 94 system (copyright 1995, Gaussian, Inc.),
 the Gaussian 92(TM) system (copyright 1992, Gaussian, Inc.),
 the Gaussian 90(TM) system (copyright 1990, Gaussian, Inc.),
 the Gaussian 88(TM) system (copyright 1988, Gaussian, Inc.),
 the Gaussian 86(TM) system (copyright 1986, Carnegie Mellon
 University), and the Gaussian 82(TM) system (copyright 1983,
 Carnegie Mellon University). Gaussian is a federally registered
 trademark of Gaussian, Inc.
  
 This software contains proprietary and confidential information,
 including trade secrets, belonging to Gaussian, Inc.
  
 This software is provided under written license and may be
 used, copied, transmitted, or stored only in accord with that
 written license.
  
 The following legend is applicable only to US Government
 contracts under FAR:
  
                    RESTRICTED RIGHTS LEGEND
  
 Use, reproduction and disclosure by the US Government is
 subject to restrictions as set forth in subparagraphs (a)
 and (c) of the Commercial Computer Software - Restricted
 Rights clause in FAR 52.227-19.
  
 Gaussian, Inc.
 340 Quinnipiac St., Bldg. 40, Wallingford CT 06492
  
  
 ---------------------------------------------------------------
 Warning -- This program may not be used in any manner that
 competes with the business of Gaussian, Inc. or will provide
 assistance to any competitor of Gaussian, Inc.  The licensee
 of this program is prohibited from giving any competitor of
 Gaussian, Inc. access to this program.  By using this program,
 the user acknowledges that Gaussian, Inc. is engaged in the
 business of creating and licensing software in the field of
 computational chemistry and represents and warrants to the
 licensee that it is not a competitor of Gaussian, Inc. and that
 it will not use this program in any manner prohibited above.
 ---------------------------------------------------------------
  

 Cite this work as:
 Gaussian 16, Revision C.01,
 M. J. Frisch, G. W. Trucks, H. B. Schlegel, G. E. Scuseria, 
 M. A. Robb, J. R. Cheeseman, G. Scalmani, V. Barone, 
 G. A. Petersson, H. Nakatsuji, X. Li, M. Caricato, A. V. Marenich, 
 J. Bloino, B. G. Janesko, R. Gomperts, B. Mennucci, H. P. Hratchian, 
 J. V. Ortiz, A. F. Izmaylov, J. L. Sonnenberg, D. Williams-Young, 
 F. Ding, F. Lipparini, F. Egidi, J. Goings, B. Peng, A. Petrone, 
 T. Henderson, D. Ranasinghe, V. G. Zakrzewski, J. Gao, N. Rega, 
 G. Zheng, W. Liang, M. Hada, M. Ehara, K. Toyota, R. Fukuda, 
 J. Hasegawa, M. Ishida, T. Nakajima, Y. Honda, O. Kitao, H. Nakai, 
 T. Vreven, K. Throssell, J. A. Montgomery, Jr., J. E. Peralta, 
 F. Ogliaro, M. J. Bearpark, J. J. Heyd, E. N. Brothers, K. N. Kudin, 
 V. N. Staroverov, T. A. Keith, R. Kobayashi, J. Normand, 
 K. Raghavachari, A. P. Rendell, J. C. Burant, S. S. Iyengar, 
 J. Tomasi, M. Cossi, J. M. Millam, M. Klene, C. Adamo, R. Cammi, 
 J. W. Ochterski, R. L. Martin, K. Morokuma, O. Farkas, 
 J. B. Foresman, and D. J. Fox, Gaussian, Inc., Wallingford CT, 2019.
 
 ******************************************
 Gaussian 16:  ES64L-G16RevC.01  3-Jul-2019
                14-Feb-2024 
 ******************************************
 %chk=PmonoL_HbiL_mannitol_IRC_reverse_reactantOpt.chk
 %mem=1600MB
 %nprocs=4
 Will use up to    4 processors via shared memory.
 ---------------------------------------------
 # opt freq wb97xd/def2tzvpp geom=connectivity
 ---------------------------------------------
 1/18=20,19=15,26=3,38=1,57=2/1,3;
 2/9=110,12=2,17=6,18=5,40=1/2;
 3/5=44,7=202,11=2,25=1,30=1,71=1,74=-58/1,2,3;
 4//1;
 5/5=2,38=5/2;
 6/7=2,8=2,9=2,10=2,28=1/1;
 7//1,2,3,16;
 1/18=20,19=15,26=3/3(2);
 2/9=110/2;
 99//99;
 2/9=110/2;
 3/5=44,7=202,11=2,25=1,30=1,71=1,74=-58/1,2,3;
 4/5=5,16=3,69=1/1;
 5/5=2,38=5/2;
 7//1,2,3,16;
 1/18=20,19=15,26=3/3(-5);
 2/9=110/2;
 6/7=2,8=2,9=2,10=2,19=2,28=1/1;
 99/9=1/99;
 ------------------------------------
 Mannitol PL1 to HL1 IRC reactant opt
 ------------------------------------
 Symbolic Z-matrix:
 Charge = -2 Multiplicity = 1
 Si                   -2.08174  -0.57538  -0.01473 
 O                    -1.81896  -1.21654   1.54936 
 O                    -2.00368   0.80803  -1.07019 
 O                    -2.7183   -1.84767  -0.94568 
 O                    -0.38512  -0.9456   -0.54421 
 O                    -0.34235   0.92956   1.52729 
 O                    -3.63546   0.08323   0.51362 
 C                     0.80827   0.6159    0.90239 
 H                     1.69448   0.60246   1.59257 
 C                     0.71953  -0.81514   0.29449 
 H                    -3.73641  -0.25845   1.39901 
 H                    -1.22584  -0.52746   1.92101 
 H                    -1.96819  -2.29889  -1.32604 
 H                    -2.8562    1.22215  -0.93085 
 C                     1.20117   1.64894  -0.19855 
 H                     0.90768   1.26375  -1.18071 
 O                     2.64789   1.79899  -0.1683 
 H                     2.92025   2.11216  -1.0288 
 C                     0.52715   3.00825  -0.02651 
 H                     0.30196   3.15211   1.03579 
 H                     1.23242   3.78572  -0.35385 
 O                    -0.62886   3.14024  -0.81389 
 H                    -1.10426   2.27927  -0.78935 
 C                     1.93532  -1.32904  -0.49856 
 H                     2.20914  -0.60789  -1.28218 
 O                     1.55337  -2.5525   -1.11698 
 H                     0.59641  -2.41422  -1.21178 
 C                     3.18049  -1.60014   0.34583 
 H                     2.86892  -1.93252   1.34568 
 H                     3.72214  -2.42684  -0.12326 
 O                     4.07826  -0.51219   0.44312 
 H                     3.56654   0.30843   0.36359 
 H                     0.61224  -1.49488   1.15666 
 

 GradGradGradGradGradGradGradGradGradGradGradGradGradGradGradGradGradGrad
 Berny optimization.
 Initialization pass.
                           ----------------------------
                           !    Initial Parameters    !
                           ! (Angstroms and Degrees)  !
 --------------------------                            --------------------------
 ! Name  Definition              Value          Derivative Info.                !
 --------------------------------------------------------------------------------
 ! R1    R(1,2)                  1.7107         estimate D2E/DX2                !
 ! R2    R(1,3)                  1.7418         estimate D2E/DX2                !
 ! R3    R(1,4)                  1.7002         estimate D2E/DX2                !
 ! R4    R(1,5)                  1.8155         estimate D2E/DX2                !
 ! R5    R(1,7)                  1.7683         estimate D2E/DX2                !
 ! R6    R(2,12)                 0.9822         estimate D2E/DX2                !
 ! R7    R(3,14)                 0.958          estimate D2E/DX2                !
 ! R8    R(4,13)                 0.9544         estimate D2E/DX2                !
 ! R9    R(5,10)                 1.3931         estimate D2E/DX2                !
 ! R10   R(6,8)                  1.3464         estimate D2E/DX2                !
 ! R11   R(7,11)                 0.9544         estimate D2E/DX2                !
 ! R12   R(8,9)                  1.1233         estimate D2E/DX2                !
 ! R13   R(8,10)                 1.5573         estimate D2E/DX2                !
 ! R14   R(8,15)                 1.56           estimate D2E/DX2                !
 ! R15   R(10,24)                1.5399         estimate D2E/DX2                !
 ! R16   R(10,33)                1.1031         estimate D2E/DX2                !
 ! R17   R(15,16)                1.0951         estimate D2E/DX2                !
 ! R18   R(15,17)                1.4548         estimate D2E/DX2                !
 ! R19   R(15,19)                1.527          estimate D2E/DX2                !
 ! R20   R(17,18)                0.9554         estimate D2E/DX2                !
 ! R21   R(19,20)                1.0954         estimate D2E/DX2                !
 ! R22   R(19,21)                1.0996         estimate D2E/DX2                !
 ! R23   R(19,22)                1.4049         estimate D2E/DX2                !
 ! R24   R(22,23)                0.9838         estimate D2E/DX2                !
 ! R25   R(24,25)                1.0996         estimate D2E/DX2                !
 ! R26   R(24,26)                1.4231         estimate D2E/DX2                !
 ! R27   R(24,28)                1.5287         estimate D2E/DX2                !
 ! R28   R(26,27)                0.9715         estimate D2E/DX2                !
 ! R29   R(28,29)                1.0988         estimate D2E/DX2                !
 ! R30   R(28,30)                1.094          estimate D2E/DX2                !
 ! R31   R(28,31)                1.4139         estimate D2E/DX2                !
 ! R32   R(31,32)                0.9704         estimate D2E/DX2                !
 ! A1    A(2,1,3)              147.6518         estimate D2E/DX2                !
 ! A2    A(2,1,4)              106.1212         estimate D2E/DX2                !
 ! A3    A(2,1,5)               92.6747         estimate D2E/DX2                !
 ! A4    A(2,1,7)               90.0792         estimate D2E/DX2                !
 ! A5    A(3,1,4)              106.2205         estimate D2E/DX2                !
 ! A6    A(3,1,5)               86.753          estimate D2E/DX2                !
 ! A7    A(3,1,7)               85.6768         estimate D2E/DX2                !
 ! A8    A(4,1,5)               92.1547         estimate D2E/DX2                !
 ! A9    A(4,1,7)               96.5082         estimate D2E/DX2                !
 ! A10   A(1,2,12)             100.1235         estimate D2E/DX2                !
 ! A11   A(1,3,14)             102.434          estimate D2E/DX2                !
 ! A12   A(1,4,13)             106.1253         estimate D2E/DX2                !
 ! A13   A(1,5,10)             123.1174         estimate D2E/DX2                !
 ! A14   A(1,7,11)             103.6967         estimate D2E/DX2                !
 ! A15   A(6,8,9)              113.0675         estimate D2E/DX2                !
 ! A16   A(6,8,10)             110.2759         estimate D2E/DX2                !
 ! A17   A(6,8,15)             112.8618         estimate D2E/DX2                !
 ! A18   A(9,8,10)             105.89           estimate D2E/DX2                !
 ! A19   A(9,8,15)             104.0536         estimate D2E/DX2                !
 ! A20   A(10,8,15)            110.3271         estimate D2E/DX2                !
 ! A21   A(5,10,8)             111.4842         estimate D2E/DX2                !
 ! A22   A(5,10,24)            106.5439         estimate D2E/DX2                !
 ! A23   A(5,10,33)            109.6153         estimate D2E/DX2                !
 ! A24   A(8,10,24)            117.5622         estimate D2E/DX2                !
 ! A25   A(8,10,33)            105.4672         estimate D2E/DX2                !
 ! A26   A(24,10,33)           105.8831         estimate D2E/DX2                !
 ! A27   A(8,15,16)            109.4226         estimate D2E/DX2                !
 ! A28   A(8,15,17)            107.7031         estimate D2E/DX2                !
 ! A29   A(8,15,19)            113.504          estimate D2E/DX2                !
 ! A30   A(16,15,17)           108.7512         estimate D2E/DX2                !
 ! A31   A(16,15,19)           107.2105         estimate D2E/DX2                !
 ! A32   A(17,15,19)           110.1697         estimate D2E/DX2                !
 ! A33   A(15,17,18)           107.3722         estimate D2E/DX2                !
 ! A34   A(15,19,20)           108.4772         estimate D2E/DX2                !
 ! A35   A(15,19,21)           108.2267         estimate D2E/DX2                !
 ! A36   A(15,19,22)           112.563          estimate D2E/DX2                !
 ! A37   A(20,19,21)           109.1297         estimate D2E/DX2                !
 ! A38   A(20,19,22)           111.2243         estimate D2E/DX2                !
 ! A39   A(21,19,22)           107.1277         estimate D2E/DX2                !
 ! A40   A(19,22,23)           107.5429         estimate D2E/DX2                !
 ! A41   A(10,24,25)           110.168          estimate D2E/DX2                !
 ! A42   A(10,24,26)           107.3862         estimate D2E/DX2                !
 ! A43   A(10,24,28)           114.6967         estimate D2E/DX2                !
 ! A44   A(25,24,26)           108.7225         estimate D2E/DX2                !
 ! A45   A(25,24,28)           107.8848         estimate D2E/DX2                !
 ! A46   A(26,24,28)           107.8293         estimate D2E/DX2                !
 ! A47   A(24,26,27)           100.6266         estimate D2E/DX2                !
 ! A48   A(24,28,29)           108.9841         estimate D2E/DX2                !
 ! A49   A(24,28,30)           107.4845         estimate D2E/DX2                !
 ! A50   A(24,28,31)           114.7553         estimate D2E/DX2                !
 ! A51   A(29,28,30)           107.5767         estimate D2E/DX2                !
 ! A52   A(29,28,31)           110.5005         estimate D2E/DX2                !
 ! A53   A(30,28,31)           107.2528         estimate D2E/DX2                !
 ! A54   A(28,31,32)           108.0743         estimate D2E/DX2                !
 ! A55   L(5,1,7,2,-1)         182.7539         estimate D2E/DX2                !
 ! A56   L(5,1,7,2,-2)         170.1812         estimate D2E/DX2                !
 ! D1    D(3,1,2,12)           -17.0895         estimate D2E/DX2                !
 ! D2    D(4,1,2,12)           164.0844         estimate D2E/DX2                !
 ! D3    D(5,1,2,12)            71.0646         estimate D2E/DX2                !
 ! D4    D(7,1,2,12)           -99.1167         estimate D2E/DX2                !
 ! D5    D(2,1,3,14)           -88.2269         estimate D2E/DX2                !
 ! D6    D(4,1,3,14)            90.5986         estimate D2E/DX2                !
 ! D7    D(5,1,3,14)          -178.0997         estimate D2E/DX2                !
 ! D8    D(7,1,3,14)            -4.9326         estimate D2E/DX2                !
 ! D9    D(2,1,4,13)           -89.3375         estimate D2E/DX2                !
 ! D10   D(3,1,4,13)            91.3166         estimate D2E/DX2                !
 ! D11   D(5,1,4,13)             4.0727         estimate D2E/DX2                !
 ! D12   D(7,1,4,13)           178.6899         estimate D2E/DX2                !
 ! D13   D(2,1,5,10)           -37.624          estimate D2E/DX2                !
 ! D14   D(3,1,5,10)           109.9884         estimate D2E/DX2                !
 ! D15   D(4,1,5,10)          -143.8799         estimate D2E/DX2                !
 ! D16   D(2,1,7,11)            -5.876          estimate D2E/DX2                !
 ! D17   D(3,1,7,11)          -153.7757         estimate D2E/DX2                !
 ! D18   D(4,1,7,11)           100.3621         estimate D2E/DX2                !
 ! D19   D(1,5,10,8)           -54.9048         estimate D2E/DX2                !
 ! D20   D(1,5,10,24)          175.6269         estimate D2E/DX2                !
 ! D21   D(1,5,10,33)           61.4883         estimate D2E/DX2                !
 ! D22   D(6,8,10,5)            54.7855         estimate D2E/DX2                !
 ! D23   D(6,8,10,24)          178.1952         estimate D2E/DX2                !
 ! D24   D(6,8,10,33)          -64.1115         estimate D2E/DX2                !
 ! D25   D(9,8,10,5)           177.4323         estimate D2E/DX2                !
 ! D26   D(9,8,10,24)          -59.158          estimate D2E/DX2                !
 ! D27   D(9,8,10,33)           58.5353         estimate D2E/DX2                !
 ! D28   D(15,8,10,5)          -70.562          estimate D2E/DX2                !
 ! D29   D(15,8,10,24)          52.8477         estimate D2E/DX2                !
 ! D30   D(15,8,10,33)         170.541          estimate D2E/DX2                !
 ! D31   D(6,8,15,16)          -99.2699         estimate D2E/DX2                !
 ! D32   D(6,8,15,17)          142.6731         estimate D2E/DX2                !
 ! D33   D(6,8,15,19)           20.4305         estimate D2E/DX2                !
 ! D34   D(9,8,15,16)          137.7819         estimate D2E/DX2                !
 ! D35   D(9,8,15,17)           19.7249         estimate D2E/DX2                !
 ! D36   D(9,8,15,19)         -102.5177         estimate D2E/DX2                !
 ! D37   D(10,8,15,16)          24.5961         estimate D2E/DX2                !
 ! D38   D(10,8,15,17)         -93.4609         estimate D2E/DX2                !
 ! D39   D(10,8,15,19)         144.2965         estimate D2E/DX2                !
 ! D40   D(5,10,24,25)          72.6498         estimate D2E/DX2                !
 ! D41   D(5,10,24,26)         -45.6007         estimate D2E/DX2                !
 ! D42   D(5,10,24,28)        -165.4115         estimate D2E/DX2                !
 ! D43   D(8,10,24,25)         -53.225          estimate D2E/DX2                !
 ! D44   D(8,10,24,26)        -171.4755         estimate D2E/DX2                !
 ! D45   D(8,10,24,28)          68.7137         estimate D2E/DX2                !
 ! D46   D(33,10,24,25)       -170.6948         estimate D2E/DX2                !
 ! D47   D(33,10,24,26)         71.0546         estimate D2E/DX2                !
 ! D48   D(33,10,24,28)        -48.7562         estimate D2E/DX2                !
 ! D49   D(8,15,17,18)         156.492          estimate D2E/DX2                !
 ! D50   D(16,15,17,18)         38.003          estimate D2E/DX2                !
 ! D51   D(19,15,17,18)        -79.2281         estimate D2E/DX2                !
 ! D52   D(8,15,19,20)          26.9065         estimate D2E/DX2                !
 ! D53   D(8,15,19,21)         145.1882         estimate D2E/DX2                !
 ! D54   D(8,15,19,22)         -96.6098         estimate D2E/DX2                !
 ! D55   D(16,15,19,20)        147.8589         estimate D2E/DX2                !
 ! D56   D(16,15,19,21)        -93.8594         estimate D2E/DX2                !
 ! D57   D(16,15,19,22)         24.3426         estimate D2E/DX2                !
 ! D58   D(17,15,19,20)        -93.9578         estimate D2E/DX2                !
 ! D59   D(17,15,19,21)         24.3238         estimate D2E/DX2                !
 ! D60   D(17,15,19,22)        142.5258         estimate D2E/DX2                !
 ! D61   D(15,19,22,23)         39.5845         estimate D2E/DX2                !
 ! D62   D(20,19,22,23)        -82.3895         estimate D2E/DX2                !
 ! D63   D(21,19,22,23)        158.431          estimate D2E/DX2                !
 ! D64   D(10,24,26,27)         27.7536         estimate D2E/DX2                !
 ! D65   D(25,24,26,27)        -91.4284         estimate D2E/DX2                !
 ! D66   D(28,24,26,27)        151.8518         estimate D2E/DX2                !
 ! D67   D(10,24,28,29)         32.133          estimate D2E/DX2                !
 ! D68   D(10,24,28,30)        148.4405         estimate D2E/DX2                !
 ! D69   D(10,24,28,31)        -92.3715         estimate D2E/DX2                !
 ! D70   D(25,24,28,29)        155.3051         estimate D2E/DX2                !
 ! D71   D(25,24,28,30)        -88.3874         estimate D2E/DX2                !
 ! D72   D(25,24,28,31)         30.8005         estimate D2E/DX2                !
 ! D73   D(26,24,28,29)        -87.4311         estimate D2E/DX2                !
 ! D74   D(26,24,28,30)         28.8764         estimate D2E/DX2                !
 ! D75   D(26,24,28,31)        148.0644         estimate D2E/DX2                !
 ! D76   D(24,28,31,32)         29.0491         estimate D2E/DX2                !
 ! D77   D(29,28,31,32)        -94.6517         estimate D2E/DX2                !
 ! D78   D(30,28,31,32)        148.3665         estimate D2E/DX2                !
 --------------------------------------------------------------------------------
 Trust Radius=3.00D-01 FncErr=1.00D-07 GrdErr=1.00D-06 EigMax=2.50D+02 EigMin=1.00D-04
 Number of steps in this run=    176 maximum allowed number of steps=    198.
 GradGradGradGradGradGradGradGradGradGradGradGradGradGradGradGradGradGrad

                          Input orientation:                          
 ---------------------------------------------------------------------
 Center     Atomic      Atomic             Coordinates (Angstroms)
 Number     Number       Type             X           Y           Z
 ---------------------------------------------------------------------
      1         14           0       -2.081739   -0.575376   -0.014730
      2          8           0       -1.818955   -1.216543    1.549357
      3          8           0       -2.003679    0.808032   -1.070187
      4          8           0       -2.718299   -1.847669   -0.945675
      5          8           0       -0.385116   -0.945602   -0.544209
      6          8           0       -0.342348    0.929558    1.527285
      7          8           0       -3.635462    0.083231    0.513621
      8          6           0        0.808273    0.615898    0.902388
      9          1           0        1.694481    0.602464    1.592571
     10          6           0        0.719534   -0.815138    0.294494
     11          1           0       -3.736408   -0.258446    1.399014
     12          1           0       -1.225840   -0.527460    1.921011
     13          1           0       -1.968192   -2.298886   -1.326035
     14          1           0       -2.856198    1.222146   -0.930845
     15          6           0        1.201171    1.648943   -0.198551
     16          1           0        0.907680    1.263750   -1.180712
     17          8           0        2.647892    1.798993   -0.168298
     18          1           0        2.920248    2.112157   -1.028801
     19          6           0        0.527154    3.008247   -0.026511
     20          1           0        0.301961    3.152113    1.035792
     21          1           0        1.232419    3.785718   -0.353853
     22          8           0       -0.628860    3.140235   -0.813893
     23          1           0       -1.104259    2.279266   -0.789353
     24          6           0        1.935317   -1.329035   -0.498562
     25          1           0        2.209140   -0.607894   -1.282178
     26          8           0        1.553365   -2.552498   -1.116976
     27          1           0        0.596408   -2.414215   -1.211784
     28          6           0        3.180491   -1.600136    0.345827
     29          1           0        2.868916   -1.932522    1.345680
     30          1           0        3.722141   -2.426835   -0.123259
     31          8           0        4.078256   -0.512192    0.443116
     32          1           0        3.566543    0.308429    0.363591
     33          1           0        0.612236   -1.494879    1.156661
 ---------------------------------------------------------------------
                    Distance matrix (angstroms):
                    1          2          3          4          5
     1  Si   0.000000
     2  O    1.710707   0.000000
     3  O    1.741810   3.315877   0.000000
     4  O    1.700175   2.726229   2.752986   0.000000
     5  O    1.815474   2.551925   2.443692   2.533504   0.000000
     6  O    2.769137   2.605111   3.085717   4.412897   2.794484
     7  O    1.768325   2.462084   2.386734   2.588263   3.569629
     8  C    3.257669   3.267834   3.440210   4.682009   2.440308
     9  H    4.269726   3.956626   4.561680   5.649644   3.359622
    10  C    2.828469   2.860023   3.451510   3.797741   1.393088
    11  H    2.199329   2.148762   3.199481   3.009941   3.934394
    12  H    2.117062   0.982216   3.366874   3.491171   2.637986
    13  H    2.168617   3.075974   3.117636   0.954427   2.224581
    14  H    2.161050   3.629667   0.957964   3.072947   3.309813
    15  C    3.969746   4.515236   3.426068   5.305350   3.060629
    16  H    3.698449   4.586902   2.948882   4.783711   2.637744
    17  O    5.294395   5.656546   4.840715   6.534406   4.107706
    18  H    5.768106   6.339337   5.093870   6.890598   4.528813
    19  C    4.432698   5.082956   3.512168   5.912508   4.090620
    20  H    4.547504   4.883358   3.904592   6.168144   4.445194
    21  H    5.487968   6.160820   4.455567   6.906046   5.003803
    22  O    4.068819   5.097332   2.719372   5.409465   4.101976
    23  H    3.115203   4.266267   1.747099   4.434090   3.313161
    24  C    4.115681   4.277988   4.517687   4.703725   2.352342
    25  H    4.474274   4.961209   4.449453   5.092144   2.718236
    26  O    4.282282   4.501850   4.893661   4.332810   2.582225
    27  H    3.462187   3.859054   4.142871   3.373288   1.888351
    28  C    5.373193   5.156558   5.888972   6.043589   3.732845
    29  H    5.310513   4.746603   6.090093   6.039411   3.890298
    30  H    6.093004   5.913222   6.644250   6.518517   4.386435
    31  O    6.177310   6.041273   6.404921   7.064375   4.591769
    32  H    5.729514   5.721466   5.773447   6.772162   4.244090
    33  H    3.078172   2.478381   4.135851   3.954332   2.046796
                    6          7          8          9         10
     6  O    0.000000
     7  O    3.548011   0.000000
     8  C    1.346405   4.492400   0.000000
     9  H    2.063959   5.462786   1.123342   0.000000
    10  C    2.385651   4.452086   1.557329   2.155254   0.000000
    11  H    3.598257   0.954387   4.654593   5.502107   4.624423
    12  H    1.748851   2.856566   2.546071   3.148472   2.552018
    13  H    4.605177   3.440727   4.601151   5.509198   3.471526
    14  H    3.528095   1.997714   4.142056   5.240259   4.293931
    15  C    2.424557   5.133387   1.560006   2.132274   2.558664
    16  H    3.001250   4.990444   2.183781   2.957609   2.556053
    17  O    3.545766   6.548999   2.435217   2.332667   3.281223
    18  H    4.310064   7.033700   3.229353   3.263935   3.894009
    19  C    2.737017   5.116135   2.581708   3.125999   3.841657
    20  H    2.365682   5.019362   2.589698   2.958010   4.057459
    21  H    3.765132   6.177150   3.435957   3.759677   4.674535
    22  O    3.232692   4.488566   3.373907   4.198722   4.323386
    23  H    2.787298   3.595455   3.047386   4.039576   3.751837
    24  C    3.793818   5.835460   2.648708   2.856839   1.539856
    25  H    4.094744   6.153204   2.869220   3.161332   2.178938
    26  O    4.765560   6.043992   3.830369   4.161171   2.388711
    27  H    4.423187   5.207973   3.700837   4.262690   2.200246
    28  C    4.495063   7.022755   3.293628   2.934969   2.583634
    29  H    4.305427   6.860212   3.307144   2.804712   2.640716
    30  H    5.523562   7.800024   4.335989   4.028912   3.433327
    31  O    4.774495   7.736986   3.489456   2.871600   3.375630
    32  H    4.125459   7.207087   2.827170   2.258642   3.061476
    33  H    2.631822   4.576775   2.135056   2.400025   1.103129
                   11         12         13         14         15
    11  H    0.000000
    12  H    2.578333   0.000000
    13  H    3.836128   3.772578   0.000000
    14  H    2.897441   3.721864   3.652724   0.000000
    15  C    5.529017   3.888400   5.186659   4.144955   0.000000
    16  H    5.526266   4.169056   4.580844   3.772392   1.095057
    17  O    6.888310   4.978292   6.280223   5.586523   1.454796
    18  H    7.471621   5.732278   6.591092   5.845429   1.964461
    19  C    5.557100   4.400802   6.006761   3.931291   1.526959
    20  H    5.298327   4.081304   6.359655   4.191229   2.142826
    21  H    6.642066   5.460911   6.943447   4.860207   2.142639
    22  O    5.109290   4.613900   5.624957   2.941730   2.439592
    23  H    4.261120   3.903661   4.689764   2.051052   2.461983
    24  C    6.075806   4.060760   4.106422   5.445549   3.081774
    25  H    6.531496   4.697444   4.506826   5.397234   2.698808
    26  O    6.290833   4.588477   3.536861   5.807480   4.315049
    27  H    5.498809   4.085932   2.569733   5.022204   4.231032
    28  C    7.124102   4.800791   5.458233   6.785041   3.843250
    29  H    6.814373   4.367177   5.538041   6.921808   4.241806
    30  H    7.915123   5.680597   5.817468   7.565831   4.793008
    31  O    7.876998   5.506164   6.548412   7.278898   3.655114
    32  H    7.397739   5.107955   6.347143   6.615289   2.776322
    33  H    4.527494   2.213290   3.669988   4.875443   3.473768
                   16         17         18         19         20
    16  H    0.000000
    17  O    2.083220   0.000000
    18  H    2.189361   0.955361   0.000000
    19  C    2.126088   2.445389   2.744897   0.000000
    20  H    2.974172   2.963808   3.492775   1.095398   0.000000
    21  H    2.673850   2.446440   2.470856   1.099551   1.788385
    22  O    2.452898   3.599004   3.701256   1.404906   2.070725
    23  H    2.287429   3.833407   4.035086   1.942897   2.463833
    24  C    2.871219   3.225120   3.618431   4.584514   5.010268
    25  H    2.281917   2.688185   2.822862   4.181178   4.811234
    26  O    3.871010   4.586224   4.861600   5.758829   6.224388
    27  H    3.691244   4.800893   5.091342   5.550924   6.010183
    28  C    3.962049   3.478802   3.967171   5.330669   5.598737
    29  H    4.521643   4.033012   4.690440   5.637194   5.704279
    30  H    4.760233   4.360466   4.697392   6.305348   6.645727
    31  O    3.980369   2.785919   3.224086   5.022386   5.295168
    32  H    3.219792   1.829920   2.368520   4.084003   4.381311
    33  H    3.627759   4.092555   4.807689   4.656746   4.658907
                   21         22         23         24         25
    21  H    0.000000
    22  O    2.023029   0.000000
    23  H    2.814093   0.983806   0.000000
    24  C    5.164853   5.162249   4.726882   0.000000
    25  H    4.595606   4.724617   4.422350   1.099581   0.000000
    26  O    6.392053   6.104193   5.524151   1.423090   2.058839
    27  H    6.291242   5.701887   5.009938   1.865202   2.422531
    28  C    5.769919   6.190898   5.890456   1.528708   2.139735
    29  H    6.185855   6.529246   6.171195   2.153377   3.015888
    30  H    6.696843   7.099328   6.773862   2.130436   2.634542
    31  O    5.215935   6.089108   6.014123   2.479149   2.545465
    32  H    4.249047   5.196826   5.199026   2.466879   2.321798
    33  H    5.527294   5.187262   4.580120   2.125514   3.047094
                   26         27         28         29         30
    26  O    0.000000
    27  H    0.971534   0.000000
    28  C    2.386278   3.125118   0.000000
    29  H    2.860021   3.454988   1.098756   0.000000
    30  H    2.388902   3.309872   1.094010   1.769215   0.000000
    31  O    3.601640   4.298796   1.413884   2.072308   2.028166
    32  H    3.798667   4.326234   1.947299   2.544218   2.782607
    33  H    2.678378   2.540662   2.695267   2.306483   3.489734
                   31         32         33
    31  O    0.000000
    32  H    0.970357   0.000000
    33  H    3.672617   3.550889   0.000000
 Stoichiometry    C6H16O10Si(2-)
 Framework group  C1[X(C6H16O10Si)]
 Deg. of freedom    93
 Full point group                 C1      NOp   1
 Largest Abelian subgroup         C1      NOp   1
 Largest concise Abelian subgroup C1      NOp   1
                         Standard orientation:                         
 ---------------------------------------------------------------------
 Center     Atomic      Atomic             Coordinates (Angstroms)
 Number     Number       Type             X           Y           Z
 ---------------------------------------------------------------------
      1         14           0       -2.124868   -0.546634    0.002459
      2          8           0       -1.865037   -1.171056    1.573797
      3          8           0       -2.027765    0.820620   -1.072291
      4          8           0       -2.789326   -1.819801   -0.907562
      5          8           0       -0.438122   -0.954618   -0.530814
      6          8           0       -0.350222    0.947534    1.514482
      7          8           0       -3.663561    0.147062    0.529892
      8          6           0        0.791110    0.604659    0.887899
      9          1           0        1.680725    0.584637    1.573525
     10          6           0        0.673302   -0.832697    0.300189
     11          1           0       -3.765752   -0.180633    1.420413
     12          1           0       -1.257587   -0.487791    1.932825
     13          1           0       -2.049563   -2.289632   -1.285635
     14          1           0       -2.871918    1.251921   -0.934161
     15          6           0        1.196445    1.615334   -0.229175
     16          1           0        0.890664    1.222148   -1.204395
     17          8           0        2.645775    1.739637   -0.208605
     18          1           0        2.918970    2.036071   -1.074750
     19          6           0        0.547938    2.988806   -0.072270
     20          1           0        0.331229    3.151185    0.989129
     21          1           0        1.265254    3.748881   -0.413966
     22          8           0       -0.609839    3.130897   -0.855291
     23          1           0       -1.100500    2.279067   -0.816427
     24          6           0        1.875257   -1.379227   -0.492128
     25          1           0        2.157679   -0.673899   -1.287003
     26          8           0        1.467963   -2.603912   -1.091663
     27          1           0        0.513140   -2.449679   -1.183320
     28          6           0        3.119991   -1.661228    0.349335
     29          1           0        2.808007   -1.974271    1.355285
     30          1           0        3.644094   -2.503891   -0.111201
     31          8           0        4.037697   -0.588446    0.426946
     32          1           0        3.540393    0.240120    0.338856
     33          1           0        0.558554   -1.498572    1.172162
 ---------------------------------------------------------------------
 Rotational constants (GHZ):           0.5616272           0.3440516           0.2537536
 Standard basis: def2TZVPP (5D, 7F)
 There are   864 symmetry adapted cartesian basis functions of A   symmetry.
 There are   762 symmetry adapted basis functions of A   symmetry.
   762 basis functions,  1157 primitive gaussians,   864 cartesian basis functions
    74 alpha electrons       74 beta electrons
       nuclear repulsion energy      1682.9199756821 Hartrees.
 NAtoms=   33 NActive=   33 NUniq=   33 SFac= 1.00D+00 NAtFMM=   60 NAOKFM=F Big=F
 Integral buffers will be    131072 words long.
 Raffenetti 2 integral format.
 Two-electron integral symmetry is turned on.
 Nuclear repulsion after empirical dispersion term =     1682.8920534537 Hartrees.
 One-electron integrals computed using PRISM.
   1 Symmetry operations used in ECPInt.
 ECPInt:  NShTT=   41041 NPrTT=  113485 LenC2=   37094 LenP2D=   75915.
 LDataN:  DoStor=T MaxTD1= 6 Len=  172
 NBasis=   762 RedAO= T EigKep=  4.32D-05  NBF=   762
 NBsUse=   762 1.00D-06 EigRej= -1.00D+00 NBFU=   762
 ExpMin= 7.01D-02 ExpMax= 4.48D+04 ExpMxC= 1.53D+03 IAcc=3 IRadAn=         5 AccDes= 0.00D+00
 Harris functional with IExCor= 4639 and IRadAn=       5 diagonalized for initial guess.
 HarFok:  IExCor= 4639 AccDes= 0.00D+00 IRadAn=         5 IDoV= 1 UseB2=F ITyADJ=14
 ICtDFT=  3500011 ScaDFX=  1.000000  1.000000  1.000000  1.000000
 FoFCou: FMM=F IPFlag=           0 FMFlag=      100000 FMFlg1=           0
         NFxFlg=           0 DoJE=T BraDBF=F KetDBF=T FulRan=T
         wScrn=  0.000000 ICntrl=       500 IOpCl=  0 I1Cent=   200000004 NGrid=           0
         NMat0=    1 NMatS0=      1 NMatT0=    0 NMatD0=    1 NMtDS0=    0 NMtDT0=    0
 Petite list used in FoFCou.
 Requested convergence on RMS density matrix=1.00D-08 within 128 cycles.
 Requested convergence on MAX density matrix=1.00D-06.
 Requested convergence on             energy=1.00D-06.
 No special actions if energy rises.
 Integral accuracy reduced to 1.0D-05 until final iterations.
 Initial convergence to 1.0D-05 achieved.  Increase integral accuracy.
 SCF Done:  E(RwB97XD) =  -1280.31283416     A.U. after   15 cycles
            NFock= 15  Conv=0.50D-08     -V/T= 2.0037

 **********************************************************************

            Population analysis using the SCF Density.

 **********************************************************************

 Orbital symmetries:
       Occupied  (A) (A) (A) (A) (A) (A) (A) (A) (A) (A) (A) (A)
                 (A) (A) (A) (A) (A) (A) (A) (A) (A) (A) (A) (A)
                 (A) (A) (A) (A) (A) (A) (A) (A) (A) (A) (A) (A)
                 (A) (A) (A) (A) (A) (A) (A) (A) (A) (A) (A) (A)
                 (A) (A) (A) (A) (A) (A) (A) (A) (A) (A) (A) (A)
                 (A) (A) (A) (A) (A) (A) (A) (A) (A) (A) (A) (A)
                 (A) (A)
       Virtual   (A) (A) (A) (A) (A) (A) (A) (A) (A) (A) (A) (A)
                 (A) (A) (A) (A) (A) (A) (A) (A) (A) (A) (A) (A)
                 (A) (A) (A) (A) (A) (A) (A) (A) (A) (A) (A) (A)
                 (A) (A) (A) (A) (A) (A) (A) (A) (A) (A) (A) (A)
                 (A) (A) (A) (A) (A) (A) (A) (A) (A) (A) (A) (A)
                 (A) (A) (A) (A) (A) (A) (A) (A) (A) (A) (A) (A)
                 (A) (A) (A) (A) (A) (A) (A) (A) (A) (A) (A) (A)
                 (A) (A) (A) (A) (A) (A) (A) (A) (A) (A) (A) (A)
                 (A) (A) (A) (A) (A) (A) (A) (A) (A) (A) (A) (A)
                 (A) (A) (A) (A) (A) (A) (A) (A) (A) (A) (A) (A)
                 (A) (A) (A) (A) (A) (A) (A) (A) (A) (A) (A) (A)
                 (A) (A) (A) (A) (A) (A) (A) (A) (A) (A) (A) (A)
                 (A) (A) (A) (A) (A) (A) (A) (A) (A) (A) (A) (A)
                 (A) (A) (A) (A) (A) (A) (A) (A) (A) (A) (A) (A)
                 (A) (A) (A) (A) (A) (A) (A) (A) (A) (A) (A) (A)
                 (A) (A) (A) (A) (A) (A) (A) (A) (A) (A) (A) (A)
                 (A) (A) (A) (A) (A) (A) (A) (A) (A) (A) (A) (A)
                 (A) (A) (A) (A) (A) (A) (A) (A) (A) (A) (A) (A)
                 (A) (A) (A) (A) (A) (A) (A) (A) (A) (A) (A) (A)
                 (A) (A) (A) (A) (A) (A) (A) (A) (A) (A) (A) (A)
                 (A) (A) (A) (A) (A) (A) (A) (A) (A) (A) (A) (A)
                 (A) (A) (A) (A) (A) (A) (A) (A) (A) (A) (A) (A)
                 (A) (A) (A) (A) (A) (A) (A) (A) (A) (A) (A) (A)
                 (A) (A) (A) (A) (A) (A) (A) (A) (A) (A) (A) (A)
                 (A) (A) (A) (A) (A) (A) (A) (A) (A) (A) (A) (A)
                 (A) (A) (A) (A) (A) (A) (A) (A) (A) (A) (A) (A)
                 (A) (A) (A) (A) (A) (A) (A) (A) (A) (A) (A) (A)
                 (A) (A) (A) (A) (A) (A) (A) (A) (A) (A) (A) (A)
                 (A) (A) (A) (A) (A) (A) (A) (A) (A) (A) (A) (A)
                 (A) (A) (A) (A) (A) (A) (A) (A) (A) (A) (A) (A)
                 (A) (A) (A) (A) (A) (A) (A) (A) (A) (A) (A) (A)
                 (A) (A) (A) (A) (A) (A) (A) (A) (A) (A) (A) (A)
                 (A) (A) (A) (A) (A) (A) (A) (A) (A) (A) (A) (A)
                 (A) (A) (A) (A) (A) (A) (A) (A) (A) (A) (A) (A)
                 (A) (A) (A) (A) (A) (A) (A) (A) (A) (A) (A) (A)
                 (A) (A) (A) (A) (A) (A) (A) (A) (A) (A) (A) (A)
                 (A) (A) (A) (A) (A) (A) (A) (A) (A) (A) (A) (A)
                 (A) (A) (A) (A) (A) (A) (A) (A) (A) (A) (A) (A)
                 (A) (A) (A) (A) (A) (A) (A) (A) (A) (A) (A) (A)
                 (A) (A) (A) (A) (A) (A) (A) (A) (A) (A) (A) (A)
                 (A) (A) (A) (A) (A) (A) (A) (A) (A) (A) (A) (A)
                 (A) (A) (A) (A) (A) (A) (A) (A) (A) (A) (A) (A)
                 (A) (A) (A) (A) (A) (A) (A) (A) (A) (A) (A) (A)
                 (A) (A) (A) (A) (A) (A) (A) (A) (A) (A) (A) (A)
                 (A) (A) (A) (A) (A) (A) (A) (A) (A) (A) (A) (A)
                 (A) (A) (A) (A) (A) (A) (A) (A) (A) (A) (A) (A)
                 (A) (A) (A) (A) (A) (A) (A) (A) (A) (A) (A) (A)
                 (A) (A) (A) (A) (A) (A) (A) (A) (A) (A) (A) (A)
                 (A) (A) (A) (A) (A) (A) (A) (A) (A) (A) (A) (A)
                 (A) (A) (A) (A) (A) (A) (A) (A) (A) (A) (A) (A)
                 (A) (A) (A) (A) (A) (A) (A) (A) (A) (A) (A) (A)
                 (A) (A) (A) (A) (A) (A) (A) (A) (A) (A) (A) (A)
                 (A) (A) (A) (A) (A) (A) (A) (A) (A) (A) (A) (A)
                 (A) (A) (A) (A) (A) (A) (A) (A) (A) (A) (A) (A)
                 (A) (A) (A) (A) (A) (A) (A) (A) (A) (A) (A) (A)
                 (A) (A) (A) (A) (A) (A) (A) (A) (A) (A) (A) (A)
                 (A) (A) (A) (A) (A) (A) (A) (A) (A) (A) (A) (A)
                 (A) (A) (A) (A)
 The electronic state is 1-A.
 Alpha  occ. eigenvalues --  -66.01385 -19.03695 -19.01078 -19.00014 -18.97287
 Alpha  occ. eigenvalues --  -18.93906 -18.93753 -18.93647 -18.91834 -18.90740
 Alpha  occ. eigenvalues --  -18.86804 -10.09676 -10.08469 -10.07437 -10.07028
 Alpha  occ. eigenvalues --  -10.05186 -10.04504  -5.12224  -3.46934  -3.46710
 Alpha  occ. eigenvalues --   -3.46635  -0.90764  -0.89189  -0.88060  -0.85340
 Alpha  occ. eigenvalues --   -0.82804  -0.79752  -0.78701  -0.77303  -0.74969
 Alpha  occ. eigenvalues --   -0.74158  -0.60683  -0.58011  -0.52849  -0.48107
 Alpha  occ. eigenvalues --   -0.44658  -0.39951  -0.37739  -0.36049  -0.34764
 Alpha  occ. eigenvalues --   -0.34186  -0.33035  -0.31209  -0.30171  -0.28914
 Alpha  occ. eigenvalues --   -0.27905  -0.27728  -0.26873  -0.26102  -0.25040
 Alpha  occ. eigenvalues --   -0.24536  -0.22716  -0.22404  -0.21335  -0.20378
 Alpha  occ. eigenvalues --   -0.19131  -0.18077  -0.16587  -0.15942  -0.15032
 Alpha  occ. eigenvalues --   -0.14584  -0.13964  -0.13804  -0.13144  -0.12282
 Alpha  occ. eigenvalues --   -0.11421  -0.09984  -0.09304  -0.09195  -0.07951
 Alpha  occ. eigenvalues --   -0.06736  -0.05806  -0.01176  -0.00437
 Alpha virt. eigenvalues --    0.30833   0.34813   0.35163   0.36628   0.38220
 Alpha virt. eigenvalues --    0.38914   0.39377   0.40533   0.41655   0.42167
 Alpha virt. eigenvalues --    0.43190   0.43570   0.44362   0.45112   0.46857
 Alpha virt. eigenvalues --    0.47615   0.47774   0.48534   0.49551   0.50146
 Alpha virt. eigenvalues --    0.51092   0.51626   0.52760   0.53665   0.54026
 Alpha virt. eigenvalues --    0.55283   0.55340   0.56021   0.57921   0.58354
 Alpha virt. eigenvalues --    0.59461   0.60290   0.60892   0.62503   0.63056
 Alpha virt. eigenvalues --    0.63659   0.63852   0.64463   0.65393   0.65724
 Alpha virt. eigenvalues --    0.66291   0.66409   0.66994   0.68007   0.68223
 Alpha virt. eigenvalues --    0.68687   0.69516   0.70408   0.70976   0.71257
 Alpha virt. eigenvalues --    0.71791   0.71871   0.72159   0.72820   0.73527
 Alpha virt. eigenvalues --    0.74594   0.74706   0.75143   0.76169   0.76664
 Alpha virt. eigenvalues --    0.76904   0.77590   0.77817   0.78467   0.79764
 Alpha virt. eigenvalues --    0.79925   0.80383   0.80979   0.81531   0.81949
 Alpha virt. eigenvalues --    0.83332   0.83542   0.84119   0.84159   0.85185
 Alpha virt. eigenvalues --    0.85475   0.85974   0.87189   0.87877   0.88498
 Alpha virt. eigenvalues --    0.89475   0.89798   0.90234   0.91195   0.92152
 Alpha virt. eigenvalues --    0.93034   0.94073   0.94623   0.95331   0.95584
 Alpha virt. eigenvalues --    0.96365   0.97228   0.97913   0.99167   0.99891
 Alpha virt. eigenvalues --    0.99964   1.00854   1.01409   1.03158   1.04050
 Alpha virt. eigenvalues --    1.04503   1.05038   1.06308   1.07342   1.08165
 Alpha virt. eigenvalues --    1.08726   1.09680   1.10233   1.11227   1.12258
 Alpha virt. eigenvalues --    1.12445   1.13239   1.13852   1.14349   1.15505
 Alpha virt. eigenvalues --    1.16799   1.17784   1.18820   1.19248   1.20184
 Alpha virt. eigenvalues --    1.21038   1.23277   1.24331   1.24452   1.25093
 Alpha virt. eigenvalues --    1.25555   1.27070   1.27582   1.29136   1.29816
 Alpha virt. eigenvalues --    1.30389   1.31192   1.32360   1.32837   1.33265
 Alpha virt. eigenvalues --    1.33718   1.34221   1.35377   1.35996   1.36929
 Alpha virt. eigenvalues --    1.37366   1.37902   1.38077   1.39650   1.40369
 Alpha virt. eigenvalues --    1.42089   1.42540   1.43443   1.43917   1.44856
 Alpha virt. eigenvalues --    1.45108   1.46108   1.46384   1.46906   1.47564
 Alpha virt. eigenvalues --    1.48942   1.49555   1.50221   1.50477   1.51267
 Alpha virt. eigenvalues --    1.51877   1.54002   1.54312   1.55106   1.56620
 Alpha virt. eigenvalues --    1.57384   1.58114   1.59196   1.60024   1.61339
 Alpha virt. eigenvalues --    1.61794   1.61958   1.63068   1.64679   1.65856
 Alpha virt. eigenvalues --    1.66974   1.67975   1.68233   1.68555   1.70930
 Alpha virt. eigenvalues --    1.72188   1.72892   1.73336   1.73853   1.74839
 Alpha virt. eigenvalues --    1.75096   1.76658   1.78049   1.78475   1.78626
 Alpha virt. eigenvalues --    1.80014   1.80679   1.82207   1.83055   1.84051
 Alpha virt. eigenvalues --    1.84477   1.84584   1.85608   1.87265   1.87885
 Alpha virt. eigenvalues --    1.88602   1.90324   1.91688   1.92555   1.94021
 Alpha virt. eigenvalues --    1.94993   1.96937   1.97482   1.99754   2.01144
 Alpha virt. eigenvalues --    2.02104   2.03998   2.06843   2.09040   2.09430
 Alpha virt. eigenvalues --    2.12631   2.13169   2.14436   2.16018   2.17246
 Alpha virt. eigenvalues --    2.18115   2.18773   2.19598   2.20776   2.20940
 Alpha virt. eigenvalues --    2.22927   2.23533   2.24240   2.25120   2.26324
 Alpha virt. eigenvalues --    2.27032   2.28831   2.29011   2.29563   2.31003
 Alpha virt. eigenvalues --    2.31574   2.32011   2.33671   2.34350   2.34755
 Alpha virt. eigenvalues --    2.35946   2.36231   2.37129   2.38665   2.39678
 Alpha virt. eigenvalues --    2.39964   2.40459   2.41649   2.42895   2.43006
 Alpha virt. eigenvalues --    2.43589   2.44935   2.45856   2.46381   2.47166
 Alpha virt. eigenvalues --    2.49180   2.51024   2.51956   2.53231   2.53797
 Alpha virt. eigenvalues --    2.54849   2.55415   2.56365   2.58012   2.58137
 Alpha virt. eigenvalues --    2.60855   2.61287   2.62099   2.64255   2.64607
 Alpha virt. eigenvalues --    2.67213   2.68332   2.70464   2.71575   2.74193
 Alpha virt. eigenvalues --    2.76904   2.77393   2.78310   2.78708   2.80264
 Alpha virt. eigenvalues --    2.81488   2.82939   2.85364   2.86366   2.87203
 Alpha virt. eigenvalues --    2.89721   2.93481   2.93935   2.94594   2.94885
 Alpha virt. eigenvalues --    2.97250   2.97770   2.98446   2.99552   3.01171
 Alpha virt. eigenvalues --    3.01677   3.03691   3.03713   3.04716   3.06192
 Alpha virt. eigenvalues --    3.08226   3.08877   3.10479   3.11498   3.12720
 Alpha virt. eigenvalues --    3.12845   3.15540   3.15715   3.17179   3.18009
 Alpha virt. eigenvalues --    3.18847   3.20234   3.22607   3.22848   3.23773
 Alpha virt. eigenvalues --    3.24820   3.26625   3.27824   3.28412   3.30146
 Alpha virt. eigenvalues --    3.30708   3.32287   3.33040   3.33363   3.34207
 Alpha virt. eigenvalues --    3.35363   3.36808   3.37754   3.39013   3.39471
 Alpha virt. eigenvalues --    3.40096   3.41154   3.41604   3.42200   3.42930
 Alpha virt. eigenvalues --    3.43914   3.44916   3.45552   3.47618   3.48374
 Alpha virt. eigenvalues --    3.48750   3.48879   3.51019   3.51662   3.52027
 Alpha virt. eigenvalues --    3.52930   3.54029   3.55753   3.56127   3.56610
 Alpha virt. eigenvalues --    3.59047   3.59205   3.60331   3.61272   3.61652
 Alpha virt. eigenvalues --    3.63147   3.64983   3.66286   3.66967   3.67994
 Alpha virt. eigenvalues --    3.69205   3.69420   3.69633   3.70536   3.71485
 Alpha virt. eigenvalues --    3.72460   3.73001   3.74270   3.75574   3.76368
 Alpha virt. eigenvalues --    3.76541   3.77876   3.78528   3.79270   3.79930
 Alpha virt. eigenvalues --    3.81308   3.81918   3.82764   3.83830   3.84646
 Alpha virt. eigenvalues --    3.85374   3.87582   3.87952   3.88398   3.89789
 Alpha virt. eigenvalues --    3.90577   3.91014   3.92598   3.93386   3.94643
 Alpha virt. eigenvalues --    3.95662   3.95829   3.97185   3.97663   3.98316
 Alpha virt. eigenvalues --    4.00274   4.01336   4.01886   4.02574   4.02929
 Alpha virt. eigenvalues --    4.03704   4.04333   4.04608   4.06634   4.07543
 Alpha virt. eigenvalues --    4.08647   4.09375   4.10047   4.10433   4.11511
 Alpha virt. eigenvalues --    4.12985   4.14323   4.15223   4.16084   4.16762
 Alpha virt. eigenvalues --    4.18430   4.19002   4.21528   4.21941   4.22941
 Alpha virt. eigenvalues --    4.23662   4.24386   4.25351   4.26493   4.27157
 Alpha virt. eigenvalues --    4.28135   4.29465   4.30435   4.31242   4.31379
 Alpha virt. eigenvalues --    4.32417   4.34308   4.35005   4.35900   4.36112
 Alpha virt. eigenvalues --    4.37854   4.38543   4.39976   4.40916   4.41441
 Alpha virt. eigenvalues --    4.42586   4.43471   4.44019   4.44551   4.46036
 Alpha virt. eigenvalues --    4.46245   4.47544   4.48384   4.49123   4.49762
 Alpha virt. eigenvalues --    4.50653   4.51086   4.52164   4.53142   4.54055
 Alpha virt. eigenvalues --    4.54959   4.55828   4.56609   4.57573   4.58229
 Alpha virt. eigenvalues --    4.59664   4.60645   4.61770   4.63003   4.63292
 Alpha virt. eigenvalues --    4.63978   4.65079   4.66761   4.67489   4.68679
 Alpha virt. eigenvalues --    4.68945   4.69197   4.70433   4.72358   4.73880
 Alpha virt. eigenvalues --    4.74069   4.75581   4.76324   4.78146   4.79097
 Alpha virt. eigenvalues --    4.81382   4.81769   4.82071   4.84437   4.85672
 Alpha virt. eigenvalues --    4.86447   4.87810   4.91047   4.93529   4.93976
 Alpha virt. eigenvalues --    4.96765   4.98430   4.99071   5.00102   5.00632
 Alpha virt. eigenvalues --    5.03202   5.05418   5.07390   5.08311   5.09660
 Alpha virt. eigenvalues --    5.09787   5.11796   5.12992   5.13117   5.15316
 Alpha virt. eigenvalues --    5.16548   5.17768   5.19673   5.20520   5.23033
 Alpha virt. eigenvalues --    5.26328   5.27516   5.29286   5.30270   5.30607
 Alpha virt. eigenvalues --    5.31654   5.32447   5.32564   5.34051   5.35896
 Alpha virt. eigenvalues --    5.36914   5.38507   5.38875   5.40411   5.41762
 Alpha virt. eigenvalues --    5.42890   5.44408   5.45186   5.46481   5.49406
 Alpha virt. eigenvalues --    5.50496   5.51010   5.53418   5.56000   5.56964
 Alpha virt. eigenvalues --    5.57828   5.59828   5.62028   5.63004   5.65288
 Alpha virt. eigenvalues --    5.68604   5.69280   5.69646   5.70665   5.72733
 Alpha virt. eigenvalues --    5.74604   5.75418   5.76037   5.77510   5.78980
 Alpha virt. eigenvalues --    5.80946   5.81553   5.82967   5.85031   5.86462
 Alpha virt. eigenvalues --    5.87395   5.88199   5.89687   5.90067   5.90901
 Alpha virt. eigenvalues --    5.92590   5.93747   5.94088   5.96228   5.97251
 Alpha virt. eigenvalues --    5.98312   5.99302   5.99621   6.00888   6.01737
 Alpha virt. eigenvalues --    6.02882   6.05076   6.06854   6.07658   6.08152
 Alpha virt. eigenvalues --    6.11074   6.11326   6.12810   6.15016   6.22189
 Alpha virt. eigenvalues --    6.23483   6.31192   6.31869   6.36843   6.38779
 Alpha virt. eigenvalues --    6.41808   6.41971   6.45943   6.46485   6.48996
 Alpha virt. eigenvalues --    6.50998   6.53805   6.59779   6.66713   6.76762
 Alpha virt. eigenvalues --    6.81236   6.81694   6.83093   6.84836   6.87796
 Alpha virt. eigenvalues --    6.89052   6.90492   6.91255   6.92140   6.93496
 Alpha virt. eigenvalues --    6.94969   6.96001   6.97409   6.98092   7.00281
 Alpha virt. eigenvalues --    7.00871   7.01326   7.01745   7.02511   7.03385
 Alpha virt. eigenvalues --    7.03688   7.04814   7.05170   7.05648   7.05794
 Alpha virt. eigenvalues --    7.07429   7.07989   7.09526   7.10534   7.11760
 Alpha virt. eigenvalues --    7.11973   7.13508   7.16246   7.17510   7.17670
 Alpha virt. eigenvalues --    7.19628   7.21955   7.23124   7.24662   7.25430
 Alpha virt. eigenvalues --    7.27412   7.29461   7.30372   7.31128   7.33023
 Alpha virt. eigenvalues --    7.34218   7.35888   7.41758   7.42692   7.43866
 Alpha virt. eigenvalues --    7.47561   7.49260   7.50612   7.52326   7.55045
 Alpha virt. eigenvalues --    7.57892   7.60712   7.64903   7.66746   7.67644
 Alpha virt. eigenvalues --    7.69163   7.71000   7.74391   7.76197   7.76482
 Alpha virt. eigenvalues --    7.78020   7.83150   7.84155   7.86239   7.87967
 Alpha virt. eigenvalues --    7.94578   7.96151   7.96755   7.98821   8.09722
 Alpha virt. eigenvalues --    8.12407  12.36502  23.38415  23.46978  23.60138
 Alpha virt. eigenvalues --   23.62975  23.68426  23.70702  44.20858  44.24401
 Alpha virt. eigenvalues --   44.29291  44.41773  44.45096  44.51091  44.52248
 Alpha virt. eigenvalues --   44.56621  44.69846  44.90198
          Condensed to atoms (all electrons):
               1          2          3          4          5          6
     1  Si  11.568053   0.348446   0.308050   0.445841   0.240389   0.075686
     2  O    0.348446   8.101474  -0.004646  -0.033551  -0.039963  -0.069535
     3  O    0.308050  -0.004646   7.953742  -0.040315  -0.046554  -0.012024
     4  O    0.445841  -0.033551  -0.040315   7.896257  -0.059651  -0.000270
     5  O    0.240389  -0.039963  -0.046554  -0.059651   8.287308   0.001382
     6  O    0.075686  -0.069535  -0.012024  -0.000270   0.001382   8.440470
     7  O    0.402529  -0.091356  -0.091061  -0.052133   0.003975  -0.004364
     8  C   -0.025104   0.007995  -0.001885  -0.001780  -0.086298   0.460884
     9  H    0.007628  -0.000710  -0.000364   0.000010   0.006632  -0.033089
    10  C   -0.059293  -0.010764   0.009109  -0.002726   0.229417  -0.143498
    11  H   -0.049481   0.026105   0.006456   0.002001   0.000210   0.000643
    12  H   -0.057215   0.315667  -0.002116   0.000507   0.010696   0.077855
    13  H   -0.040297   0.000906   0.000176   0.321668   0.010436  -0.000162
    14  H   -0.033701   0.000328   0.313202   0.000971   0.004301   0.001411
    15  C   -0.017806  -0.001660   0.006289   0.000395   0.001544  -0.160222
    16  H    0.002688   0.000211   0.002452  -0.000189   0.026138   0.009867
    17  O    0.000311   0.000002   0.000020  -0.000000   0.000605   0.002146
    18  H   -0.000030  -0.000002  -0.000004   0.000000   0.000248  -0.000741
    19  C    0.006183  -0.000105  -0.005827  -0.000004  -0.001180   0.013777
    20  H   -0.000667   0.000225   0.000586   0.000003  -0.000018   0.028088
    21  H    0.000397   0.000001  -0.000504  -0.000000  -0.000015   0.002921
    22  O    0.000637   0.000011  -0.036480  -0.000005   0.000227  -0.006326
    23  H   -0.005028  -0.000471   0.072594  -0.000125  -0.000760   0.002175
    24  C    0.005328   0.003551  -0.001639  -0.000665  -0.014100   0.019853
    25  H    0.001288  -0.000160  -0.000107   0.000052   0.005898   0.000865
    26  O    0.000933  -0.000157  -0.000023   0.000045  -0.035012  -0.000382
    27  H   -0.003560   0.000464   0.000248   0.000072   0.057049  -0.000249
    28  C   -0.000812   0.000477   0.000003  -0.000021   0.005573  -0.002404
    29  H    0.000092  -0.000251  -0.000002   0.000004   0.000006   0.000067
    30  H   -0.000036   0.000003   0.000000  -0.000001  -0.000275   0.000026
    31  O   -0.000002  -0.000001   0.000000   0.000000  -0.000070   0.000100
    32  H    0.000002  -0.000001  -0.000002  -0.000000  -0.000082  -0.000014
    33  H    0.007112   0.025229  -0.000060   0.000168  -0.052717   0.006267
               7          8          9         10         11         12
     1  Si   0.402529  -0.025104   0.007628  -0.059293  -0.049481  -0.057215
     2  O   -0.091356   0.007995  -0.000710  -0.010764   0.026105   0.315667
     3  O   -0.091061  -0.001885  -0.000364   0.009109   0.006456  -0.002116
     4  O   -0.052133  -0.001780   0.000010  -0.002726   0.002001   0.000507
     5  O    0.003975  -0.086298   0.006632   0.229417   0.000210   0.010696
     6  O   -0.004364   0.460884  -0.033089  -0.143498   0.000643   0.077855
     7  O    8.100838  -0.002305  -0.000059  -0.000971   0.309739   0.004986
     8  C   -0.002305   5.294454   0.394813   0.102014  -0.000236  -0.003814
     9  H   -0.000059   0.394813   0.873950  -0.070020   0.000002  -0.004791
    10  C   -0.000971   0.102014  -0.070020   5.531249  -0.000102  -0.019098
    11  H    0.309739  -0.000236   0.000002  -0.000102   0.569301   0.002781
    12  H    0.004986  -0.003814  -0.004791  -0.019098   0.002781   0.459735
    13  H    0.003722   0.000250  -0.000002  -0.000294  -0.000609  -0.000579
    14  H    0.010501  -0.000261   0.000040  -0.000433  -0.000235  -0.000209
    15  C    0.000652  -0.131840  -0.168728   0.031330   0.000044   0.012432
    16  H   -0.000000  -0.012690   0.019411  -0.056107  -0.000013  -0.000343
    17  O   -0.000000  -0.056564  -0.005375   0.018474  -0.000000  -0.000079
    18  H    0.000000   0.012138  -0.000670  -0.004938   0.000000   0.000027
    19  C   -0.000218  -0.004209   0.015557  -0.005603  -0.000012  -0.001351
    20  H    0.000043   0.015155   0.000257   0.000543  -0.000005  -0.000214
    21  H   -0.000004   0.018258   0.000645  -0.000466  -0.000000  -0.000037
    22  O   -0.000090   0.016170  -0.000575  -0.006282   0.000011   0.000116
    23  H   -0.000019   0.000994  -0.000056   0.001710  -0.000080  -0.000220
    24  C    0.000107  -0.052986  -0.002534  -0.013967  -0.000011   0.001406
    25  H   -0.000004  -0.013843   0.000144  -0.060500   0.000001  -0.000175
    26  O    0.000000   0.012479  -0.000341  -0.019419  -0.000000  -0.000112
    27  H   -0.000012   0.004229  -0.000133  -0.024314  -0.000005  -0.000266
    28  C   -0.000002   0.013465   0.005028   0.020829  -0.000002  -0.000540
    29  H   -0.000000   0.001901  -0.004773  -0.003316   0.000001  -0.000032
    30  H    0.000000   0.000466   0.001139   0.007983  -0.000000   0.000004
    31  O    0.000000  -0.000417   0.005002  -0.000825   0.000000   0.000016
    32  H   -0.000000  -0.002288   0.006992   0.004612  -0.000000  -0.000024
    33  H    0.000402  -0.073705  -0.007898   0.331348  -0.000217   0.003930
              13         14         15         16         17         18
     1  Si  -0.040297  -0.033701  -0.017806   0.002688   0.000311  -0.000030
     2  O    0.000906   0.000328  -0.001660   0.000211   0.000002  -0.000002
     3  O    0.000176   0.313202   0.006289   0.002452   0.000020  -0.000004
     4  O    0.321668   0.000971   0.000395  -0.000189  -0.000000   0.000000
     5  O    0.010436   0.004301   0.001544   0.026138   0.000605   0.000248
     6  O   -0.000162   0.001411  -0.160222   0.009867   0.002146  -0.000741
     7  O    0.003722   0.010501   0.000652  -0.000000  -0.000000   0.000000
     8  C    0.000250  -0.000261  -0.131840  -0.012690  -0.056564   0.012138
     9  H   -0.000002   0.000040  -0.168728   0.019411  -0.005375  -0.000670
    10  C   -0.000294  -0.000433   0.031330  -0.056107   0.018474  -0.004938
    11  H   -0.000609  -0.000235   0.000044  -0.000013  -0.000000   0.000000
    12  H   -0.000579  -0.000209   0.012432  -0.000343  -0.000079   0.000027
    13  H    0.571003  -0.000378  -0.000033  -0.000071  -0.000000  -0.000001
    14  H   -0.000378   0.568141  -0.000148  -0.000225  -0.000006   0.000002
    15  C   -0.000033  -0.000148   5.939759   0.341537   0.148169  -0.055072
    16  H   -0.000071  -0.000225   0.341537   0.659878  -0.054105  -0.008515
    17  O   -0.000000  -0.000006   0.148169  -0.054105   7.982532   0.311898
    18  H   -0.000001   0.000002  -0.055072  -0.008515   0.311898   0.597101
    19  C    0.000015   0.000567   0.175611  -0.021375  -0.017661   0.000696
    20  H    0.000000  -0.000328  -0.126519   0.014273   0.007221  -0.001194
    21  H    0.000001   0.000036  -0.020847  -0.005936   0.008330   0.003049
    22  O   -0.000003   0.001408  -0.102883   0.019393   0.004681   0.000515
    23  H   -0.000010  -0.002942   0.005492   0.000480  -0.000453  -0.000170
    24  C   -0.001049   0.000036   0.037317   0.014852  -0.019799   0.000601
    25  H   -0.000017   0.000025  -0.008702  -0.008569   0.019583   0.003915
    26  O   -0.000323   0.000003  -0.002428  -0.000693   0.000274  -0.000045
    27  H    0.004141  -0.000041  -0.001491   0.000384   0.000063  -0.000019
    28  C    0.000073  -0.000003  -0.013183   0.001126   0.001641  -0.000100
    29  H   -0.000005   0.000000  -0.000879   0.000070  -0.000110   0.000185
    30  H   -0.000003   0.000000   0.000111  -0.000001  -0.000141   0.000005
    31  O   -0.000000   0.000000  -0.001660  -0.000040  -0.026895   0.002932
    32  H    0.000000   0.000000  -0.004858   0.000487   0.052199  -0.006629
    33  H   -0.000306   0.000057   0.015727   0.000968  -0.000163   0.000269
              19         20         21         22         23         24
     1  Si   0.006183  -0.000667   0.000397   0.000637  -0.005028   0.005328
     2  O   -0.000105   0.000225   0.000001   0.000011  -0.000471   0.003551
     3  O   -0.005827   0.000586  -0.000504  -0.036480   0.072594  -0.001639
     4  O   -0.000004   0.000003  -0.000000  -0.000005  -0.000125  -0.000665
     5  O   -0.001180  -0.000018  -0.000015   0.000227  -0.000760  -0.014100
     6  O    0.013777   0.028088   0.002921  -0.006326   0.002175   0.019853
     7  O   -0.000218   0.000043  -0.000004  -0.000090  -0.000019   0.000107
     8  C   -0.004209   0.015155   0.018258   0.016170   0.000994  -0.052986
     9  H    0.015557   0.000257   0.000645  -0.000575  -0.000056  -0.002534
    10  C   -0.005603   0.000543  -0.000466  -0.006282   0.001710  -0.013967
    11  H   -0.000012  -0.000005  -0.000000   0.000011  -0.000080  -0.000011
    12  H   -0.001351  -0.000214  -0.000037   0.000116  -0.000220   0.001406
    13  H    0.000015   0.000000   0.000001  -0.000003  -0.000010  -0.001049
    14  H    0.000567  -0.000328   0.000036   0.001408  -0.002942   0.000036
    15  C    0.175611  -0.126519  -0.020847  -0.102883   0.005492   0.037317
    16  H   -0.021375   0.014273  -0.005936   0.019393   0.000480   0.014852
    17  O   -0.017661   0.007221   0.008330   0.004681  -0.000453  -0.019799
    18  H    0.000696  -0.001194   0.003049   0.000515  -0.000170   0.000601
    19  C    4.716033   0.451143   0.302400   0.327539  -0.051176   0.001588
    20  H    0.451143   0.690723  -0.068521  -0.043791  -0.000253  -0.000266
    21  H    0.302400  -0.068521   0.820906  -0.047018   0.008131   0.000021
    22  O    0.327539  -0.043791  -0.047018   8.003486   0.349386   0.000914
    23  H   -0.051176  -0.000253   0.008131   0.349386   0.380710  -0.000318
    24  C    0.001588  -0.000266   0.000021   0.000914  -0.000318   5.280845
    25  H   -0.000355  -0.000351  -0.000060  -0.000442  -0.000037   0.380453
    26  O   -0.000035   0.000006  -0.000000  -0.000000   0.000004   0.232657
    27  H    0.000058   0.000005  -0.000001   0.000001  -0.000024  -0.063933
    28  C    0.000302   0.000076  -0.000003  -0.000027  -0.000007   0.190828
    29  H   -0.000072  -0.000015   0.000001   0.000000  -0.000000  -0.067173
    30  H    0.000017  -0.000002  -0.000000  -0.000000   0.000000  -0.004825
    31  O   -0.000117   0.000014  -0.000001   0.000001   0.000000  -0.055785
    32  H    0.000138  -0.000151   0.000172  -0.000045   0.000016  -0.004491
    33  H   -0.001080  -0.000428   0.000057   0.000030  -0.000024  -0.004685
              25         26         27         28         29         30
     1  Si   0.001288   0.000933  -0.003560  -0.000812   0.000092  -0.000036
     2  O   -0.000160  -0.000157   0.000464   0.000477  -0.000251   0.000003
     3  O   -0.000107  -0.000023   0.000248   0.000003  -0.000002   0.000000
     4  O    0.000052   0.000045   0.000072  -0.000021   0.000004  -0.000001
     5  O    0.005898  -0.035012   0.057049   0.005573   0.000006  -0.000275
     6  O    0.000865  -0.000382  -0.000249  -0.002404   0.000067   0.000026
     7  O   -0.000004   0.000000  -0.000012  -0.000002  -0.000000   0.000000
     8  C   -0.013843   0.012479   0.004229   0.013465   0.001901   0.000466
     9  H    0.000144  -0.000341  -0.000133   0.005028  -0.004773   0.001139
    10  C   -0.060500  -0.019419  -0.024314   0.020829  -0.003316   0.007983
    11  H    0.000001  -0.000000  -0.000005  -0.000002   0.000001  -0.000000
    12  H   -0.000175  -0.000112  -0.000266  -0.000540  -0.000032   0.000004
    13  H   -0.000017  -0.000323   0.004141   0.000073  -0.000005  -0.000003
    14  H    0.000025   0.000003  -0.000041  -0.000003   0.000000   0.000000
    15  C   -0.008702  -0.002428  -0.001491  -0.013183  -0.000879   0.000111
    16  H   -0.008569  -0.000693   0.000384   0.001126   0.000070  -0.000001
    17  O    0.019583   0.000274   0.000063   0.001641  -0.000110  -0.000141
    18  H    0.003915  -0.000045  -0.000019  -0.000100   0.000185   0.000005
    19  C   -0.000355  -0.000035   0.000058   0.000302  -0.000072   0.000017
    20  H   -0.000351   0.000006   0.000005   0.000076  -0.000015  -0.000002
    21  H   -0.000060  -0.000000  -0.000001  -0.000003   0.000001  -0.000000
    22  O   -0.000442  -0.000000   0.000001  -0.000027   0.000000  -0.000000
    23  H   -0.000037   0.000004  -0.000024  -0.000007  -0.000000   0.000000
    24  C    0.380453   0.232657  -0.063933   0.190828  -0.067173  -0.004825
    25  H    0.762550  -0.036822   0.000898  -0.082539   0.018699  -0.009078
    26  O   -0.036822   7.983086   0.343167  -0.051105   0.007880   0.004313
    27  H    0.000898   0.343167   0.461330   0.013537  -0.000823  -0.001032
    28  C   -0.082539  -0.051105   0.013537   4.877881   0.389959   0.364284
    29  H    0.018699   0.007880  -0.000823   0.389959   0.723131  -0.058227
    30  H   -0.009078   0.004313  -0.001032   0.364284  -0.058227   0.693318
    31  O    0.012762   0.003957  -0.000543   0.274614  -0.047630  -0.037507
    32  H    0.003725  -0.000240  -0.000006  -0.050838   0.000752   0.006786
    33  H    0.013037   0.004155   0.003300  -0.021055   0.015909  -0.000944
              31         32         33
     1  Si  -0.000002   0.000002   0.007112
     2  O   -0.000001  -0.000001   0.025229
     3  O    0.000000  -0.000002  -0.000060
     4  O    0.000000  -0.000000   0.000168
     5  O   -0.000070  -0.000082  -0.052717
     6  O    0.000100  -0.000014   0.006267
     7  O    0.000000  -0.000000   0.000402
     8  C   -0.000417  -0.002288  -0.073705
     9  H    0.005002   0.006992  -0.007898
    10  C   -0.000825   0.004612   0.331348
    11  H    0.000000  -0.000000  -0.000217
    12  H    0.000016  -0.000024   0.003930
    13  H   -0.000000   0.000000  -0.000306
    14  H    0.000000   0.000000   0.000057
    15  C   -0.001660  -0.004858   0.015727
    16  H   -0.000040   0.000487   0.000968
    17  O   -0.026895   0.052199  -0.000163
    18  H    0.002932  -0.006629   0.000269
    19  C   -0.000117   0.000138  -0.001080
    20  H    0.000014  -0.000151  -0.000428
    21  H   -0.000001   0.000172   0.000057
    22  O    0.000001  -0.000045   0.000030
    23  H    0.000000   0.000016  -0.000024
    24  C   -0.055785  -0.004491  -0.004685
    25  H    0.012762   0.003725   0.013037
    26  O    0.003957  -0.000240   0.004155
    27  H   -0.000543  -0.000006   0.003300
    28  C    0.274614  -0.050838  -0.021055
    29  H   -0.047630   0.000752   0.015909
    30  H   -0.037507   0.006786  -0.000944
    31  O    7.966315   0.362946   0.000717
    32  H    0.362946   0.408949  -0.000417
    33  H    0.000717  -0.000417   0.736675
 Mulliken charges:
               1
     1  Si   0.871439
     2  O   -0.577762
     3  O   -0.429314
     4  O   -0.476559
     5  O   -0.555340
     6  O   -0.711205
     7  O   -0.594893
     8  C    0.114561
     9  H   -0.037132
    10  C    0.214317
    11  H    0.133714
    12  H    0.201054
    13  H    0.131753
    14  H    0.137879
    15  C    0.102552
    16  H    0.054658
    17  O   -0.376799
    18  H    0.144548
    19  C    0.098755
    20  H    0.034362
    21  H   -0.021912
    22  O   -0.480562
    23  H    0.240479
    24  C    0.137870
    25  H   -0.002135
    26  O   -0.445821
    27  H    0.207508
    28  C    0.062943
    29  H    0.024653
    30  H    0.033619
    31  O   -0.457885
    32  H    0.222312
    33  H   -0.001658
 Sum of Mulliken charges =  -2.00000
 Mulliken charges with hydrogens summed into heavy atoms:
               1
     1  Si   0.871439
     2  O   -0.376707
     3  O   -0.291435
     4  O   -0.344806
     5  O   -0.555340
     6  O   -0.711205
     7  O   -0.461179
     8  C    0.077429
    10  C    0.212658
    15  C    0.157211
    17  O   -0.232251
    19  C    0.111205
    22  O   -0.240083
    24  C    0.135735
    26  O   -0.238314
    28  C    0.121215
    31  O   -0.235573
 Electronic spatial extent (au):  <R**2>=           4529.0804
 Charge=             -2.0000 electrons
 Dipole moment (field-independent basis, Debye):
    X=              6.0183    Y=              0.6149    Z=             -2.1761  Tot=              6.4291
 Quadrupole moment (field-independent basis, Debye-Ang):
   XX=           -182.1341   YY=           -150.1534   ZZ=           -128.3723
   XY=              2.7271   XZ=             -4.7446   YZ=             -2.4401
 Traceless Quadrupole moment (field-independent basis, Debye-Ang):
   XX=            -28.5809   YY=              3.3999   ZZ=             25.1810
   XY=              2.7271   XZ=             -4.7446   YZ=             -2.4401
 Octapole moment (field-independent basis, Debye-Ang**2):
  XXX=             -9.7557  YYY=            -29.8474  ZZZ=            -15.7460  XYY=              7.1977
  XXY=             55.3332  XXZ=            -14.0668  XZZ=              7.5155  YZZ=             -0.2262
  YYZ=              9.1185  XYZ=            -16.3525
 Hexadecapole moment (field-independent basis, Debye-Ang**3):
 XXXX=          -4253.8529 YYYY=          -2255.2355 ZZZZ=           -633.3568 XXXY=              4.8846
 XXXZ=           -133.1730 YYYX=             74.8896 YYYZ=             32.9276 ZZZX=            -14.1083
 ZZZY=             -0.9906 XXYY=           -962.5297 XXZZ=           -652.6295 YYZZ=           -465.3072
 XXYZ=            -55.4159 YYXZ=              5.2276 ZZXY=             17.7785
 N-N= 1.682892053454D+03 E-N=-6.432370900029D+03  KE= 1.275646345374D+03
   1 Symmetry operations used in ECPInt.
 ECPInt:  NShTT=   41041 NPrTT=  113485 LenC2=   37094 LenP2D=   75915.
 LDataN:  DoStor=T MaxTD1= 7 Len=  274
 Calling FoFJK, ICntrl=      2127 FMM=F ISym2X=0 I1Cent= 0 IOpClX= 0 NMat=1 NMatS=1 NMatT=0.
 ***** Axes restored to original set *****
 -------------------------------------------------------------------
 Center     Atomic                   Forces (Hartrees/Bohr)
 Number     Number              X              Y              Z
 -------------------------------------------------------------------
      1       14          -0.001048645   -0.000725272   -0.000586790
      2        8           0.000098937    0.001989032    0.000016745
      3        8          -0.000346592    0.000144536    0.000681769
      4        8           0.000427770   -0.000798554   -0.000404303
      5        8          -0.000124712    0.000333392   -0.000036885
      6        8           0.001701308    0.000404258    0.001651616
      7        8          -0.001509131   -0.001683413   -0.000621170
      8        6           0.000548051   -0.000003639    0.000299707
      9        1           0.000011671   -0.000030775   -0.000077748
     10        6          -0.000149456    0.000102946    0.000059392
     11        1           0.000019529    0.000214728   -0.000599385
     12        1           0.000022196    0.000117303   -0.000069460
     13        1           0.000012465    0.000010346    0.000003594
     14        1          -0.000002475   -0.000008943    0.000053387
     15        6           0.000169867    0.000017009    0.000091214
     16        1          -0.000008238    0.000003661    0.000020820
     17        8           0.000244494    0.000111660   -0.000360240
     18        1          -0.000008296    0.000011570   -0.000016253
     19        6           0.000140899   -0.000000861    0.000101257
     20        1           0.000000033   -0.000037021    0.000022726
     21        1           0.000006694    0.000000238    0.000013556
     22        8           0.000199778   -0.000028059    0.000062681
     23        1           0.000015293   -0.000005810    0.000012575
     24        6          -0.000127885    0.000008680    0.000020604
     25        1          -0.000000861    0.000016135    0.000011794
     26        8          -0.000256328    0.000038303    0.000026488
     27        1          -0.000008644    0.000002306   -0.000004653
     28        6          -0.000120715   -0.000013633    0.000016545
     29        1          -0.000002787    0.000022715    0.000004297
     30        1          -0.000023509   -0.000009513    0.000015420
     31        8           0.000072007   -0.000180203   -0.000365794
     32        1           0.000045513   -0.000029320   -0.000034265
     33        1           0.000001769    0.000006200   -0.000009243
 -------------------------------------------------------------------
 Cartesian Forces:  Max     0.001989032 RMS     0.000453874

 GradGradGradGradGradGradGradGradGradGradGradGradGradGradGradGradGradGrad
 Berny optimization.
 FormGI is forming the generalized inverse of G from B-inverse, IUseBI=4.
 Internal  Forces:  Max     0.016654249 RMS     0.001767077
 Search for a local minimum.
 Step number   1 out of a maximum of  176
 All quantities printed in internal units (Hartrees-Bohrs-Radians)
 Mixed Optimization -- RFO/linear search
 Second derivative matrix not updated -- first step.
 ITU=  0
     Eigenvalues ---    0.00230   0.00230   0.00239   0.00386   0.00409
     Eigenvalues ---    0.00967   0.01386   0.01489   0.01508   0.01627
     Eigenvalues ---    0.01783   0.02113   0.02463   0.02875   0.03014
     Eigenvalues ---    0.03669   0.04019   0.04153   0.04538   0.04624
     Eigenvalues ---    0.04691   0.04783   0.04869   0.04950   0.05190
     Eigenvalues ---    0.05993   0.06040   0.06100   0.07358   0.07575
     Eigenvalues ---    0.07686   0.07859   0.08422   0.10713   0.11595
     Eigenvalues ---    0.11829   0.13970   0.14132   0.15582   0.15731
     Eigenvalues ---    0.16000   0.16000   0.16000   0.16000   0.16000
     Eigenvalues ---    0.16000   0.16000   0.16000   0.16106   0.16728
     Eigenvalues ---    0.16962   0.17001   0.17917   0.19501   0.19723
     Eigenvalues ---    0.19748   0.20256   0.22104   0.22127   0.23737
     Eigenvalues ---    0.24935   0.25000   0.26818   0.27037   0.28532
     Eigenvalues ---    0.28780   0.29543   0.29706   0.31227   0.31294
     Eigenvalues ---    0.33338   0.33729   0.33732   0.33820   0.34196
     Eigenvalues ---    0.34235   0.34353   0.34632   0.35869   0.37623
     Eigenvalues ---    0.41998   0.43395   0.44817   0.46785   0.50653
     Eigenvalues ---    0.50957   0.53065   0.53304   0.55793   0.55914
     Eigenvalues ---    0.56483   0.56690   0.56698
 RFO step:  Lambda=-3.91466308D-03 EMin= 2.30000000D-03
 Linear search not attempted -- first point.
 Iteration  1 RMS(Cart)=  0.14540191 RMS(Int)=  0.00534679
 Iteration  2 RMS(Cart)=  0.01140476 RMS(Int)=  0.00007944
 Iteration  3 RMS(Cart)=  0.00006301 RMS(Int)=  0.00007573
 Iteration  4 RMS(Cart)=  0.00000000 RMS(Int)=  0.00007573
 Variable       Old X    -DE/DX   Delta X   Delta X   Delta X     New X
                                 (Linear)    (Quad)   (Total)
    R1        3.23277  -0.00082   0.00000  -0.00234  -0.00234   3.23043
    R2        3.29154  -0.00035   0.00000  -0.00111  -0.00111   3.29043
    R3        3.21287   0.00064   0.00000   0.00177   0.00177   3.21464
    R4        3.43075   0.00158   0.00000   0.00624   0.00624   3.43699
    R5        3.34165   0.00040   0.00000   0.00137   0.00137   3.34302
    R6        1.85612   0.00007   0.00000   0.00014   0.00014   1.85626
    R7        1.81029   0.00001   0.00000   0.00001   0.00001   1.81030
    R8        1.80361   0.00000   0.00000   0.00000   0.00000   1.80361
    R9        2.63256   0.00292   0.00000   0.00619   0.00619   2.63874
   R10        2.54434  -0.00059   0.00000  -0.00106  -0.00106   2.54328
   R11        1.80353  -0.00063   0.00000  -0.00111  -0.00111   1.80242
   R12        2.12281  -0.00004   0.00000  -0.00012  -0.00012   2.12269
   R13        2.94293   0.00128   0.00000   0.00468   0.00468   2.94761
   R14        2.94798   0.00028   0.00000   0.00104   0.00104   2.94902
   R15        2.90991  -0.00013   0.00000  -0.00045  -0.00045   2.90946
   R16        2.08461  -0.00001   0.00000  -0.00003  -0.00003   2.08458
   R17        2.06936  -0.00002   0.00000  -0.00005  -0.00005   2.06931
   R18        2.74917   0.00024   0.00000   0.00063   0.00063   2.74980
   R19        2.88553  -0.00020   0.00000  -0.00067  -0.00067   2.88486
   R20        1.80537   0.00002   0.00000   0.00003   0.00003   1.80540
   R21        2.07000   0.00002   0.00000   0.00005   0.00005   2.07005
   R22        2.07785   0.00000   0.00000   0.00000   0.00000   2.07785
   R23        2.65489  -0.00022   0.00000  -0.00049  -0.00049   2.65440
   R24        1.85912  -0.00000   0.00000  -0.00000  -0.00000   1.85912
   R25        2.07791   0.00000   0.00000   0.00000   0.00000   2.07791
   R26        2.68925   0.00003   0.00000   0.00006   0.00006   2.68931
   R27        2.88884  -0.00019   0.00000  -0.00063  -0.00063   2.88821
   R28        1.83593   0.00001   0.00000   0.00002   0.00002   1.83595
   R29        2.07635  -0.00000   0.00000  -0.00000  -0.00000   2.07634
   R30        2.06738  -0.00001   0.00000  -0.00003  -0.00003   2.06735
   R31        2.67185  -0.00011   0.00000  -0.00026  -0.00026   2.67159
   R32        1.83371  -0.00005   0.00000  -0.00009  -0.00009   1.83362
    A1        2.57701  -0.00165   0.00000  -0.01046  -0.01053   2.56648
    A2        1.85216   0.00124   0.00000   0.00693   0.00697   1.85914
    A3        1.61748   0.00063   0.00000   0.00814   0.00824   1.62572
    A4        1.57218   0.00038   0.00000   0.00505   0.00510   1.57728
    A5        1.85390   0.00041   0.00000   0.00349   0.00352   1.85742
    A6        1.51413   0.00083   0.00000   0.00883   0.00903   1.52315
    A7        1.49534   0.00005   0.00000   0.00305   0.00319   1.49853
[...]
 74,0.00009265,-0.00016666,-0.00000943,0.00298848,-0.00016386,0.0010919
 4,-0.00017318,-0.00149346,-0.00156960,0.00507011,0.00058287,0.00961424
 ,-0.00000462,0.00002308,-0.00001304,0.00100499,0.00063491,0.00040515,0
 .00001902,-0.00020886,-0.00016946,0.00005241,-0.00002207,0.00003727,0.
 00338259,-0.00012112,-0.00056292,-0.00026432,0.00022723,-0.00032560,-0
 .00294937,0.00194852,0.00019434,0.00002979,-0.00005910,0.00020443,-0.0
 0035881,-0.00024486,0.00028047,-0.00016705,0.00015386,0.00000400,0.000
 06941,-0.00017364,-0.00010408,-0.00041255,-0.00007118,-0.00018530,0.00
 026270,0.00029073,0.00005685,0.02857768,-0.08016519,0.01270356,0.01799
 726,-0.00433185,0.01066877,-0.03342642,-0.00447546,-0.01625947,-0.0019
 6760,-0.00487993,-0.00401216,-0.05027868,0.55984708,-0.00175192,0.0009
 0410,0.00063025,-0.00013070,-0.00035739,-0.00090772,0.00018818,-0.0003
 4140,0.00010517,0.00061570,0.00036301,0.00001857,0.00771572,-0.0015364
 7,-0.00118226,-0.00084226,0.00001418,-0.00069739,0.00013840,-0.0000547
 6,-0.00009886,0.00165235,0.00036073,0.00048666,-0.00014555,-0.00167119
 ,-0.00055789,0.00861604,0.00124050,0.01447659,-0.00000030,-0.00001213,
 0.00000702,0.00062642,0.00026202,0.00034262,-0.00015226,-0.00017824,0.
 00003469,-0.00001753,-0.00004307,0.00005795,-0.00140085,0.00003049,-0.
 00009629,0.00012318,0.00031481,-0.00005569,0.00093706,-0.00062577,0.00
 010899,0.00006867,-0.00000750,-0.00003083,0.00022968,-0.00002802,-0.00
 006663,0.00007284,-0.00005980,0.00003982,-0.00003022,0.00002738,0.0000
 1637,-0.00009156,0.00005838,-0.00012868,0.00006177,0.00007564,0.000018
 22,-0.03478918,0.01264673,-0.10636120,-0.02511883,0.00798103,-0.012371
 93,-0.01352555,-0.00360537,-0.00550247,0.00074042,-0.00169275,-0.00043
 630,-0.02763476,0.02210920,0.57070918,-0.00012746,0.00000579,-0.000140
 27,0.00013792,0.00003724,0.00009795,0.00001570,0.00000191,0.00005438,0
 .00005987,0.00006684,0.00005654,0.00044367,-0.00012612,0.00102550,0.00
 031854,-0.00007509,0.00004831,0.00003927,0.00000244,0.00003070,-0.0006
 5340,0.00008960,0.00000780,0.00024432,0.00037481,0.00018917,0.00051806
 ,0.00092263,-0.00238815,-0.00001867,0.00000257,-0.00000194,-0.00017054
 ,-0.00004604,-0.00005124,0.00000924,-0.00002666,-0.00003039,-0.0000016
 7,-0.00000777,-0.00000575,-0.00017058,-0.00022594,-0.00026079,0.000106
 39,0.00003147,0.00015009,0.00031478,-0.00014582,0.00004189,-0.00003662
 ,-0.00004546,-0.00001851,0.00003101,0.00004849,0.00007554,0.00000525,0
 .00000904,-0.00001074,-0.00002134,0.00002205,0.00000790,0.00006996,-0.
 00004508,0.00007658,-0.00000993,-0.00002444,-0.00001991,0.00244645,0.0
 0705379,-0.02893456,-0.00404758,0.00098852,-0.00234574,-0.00083523,-0.
 00062931,0.00054112,0.00010202,-0.00038147,-0.00014747,-0.04991613,-0.
 00033200,0.01754058,0.05977930,0.00019396,-0.00002338,0.00011670,-0.00
 018549,-0.00005158,-0.00010363,-0.00002362,0.00006423,-0.00006882,-0.0
 0005790,-0.00005250,-0.00003613,-0.00050328,0.00012469,-0.00024197,-0.
 00044660,0.00018512,-0.00003161,-0.00004538,0.00001032,-0.00003443,0.0
 0084427,-0.00020949,0.00023661,-0.00011707,-0.00090676,-0.00020393,-0.
 00019856,0.00027809,-0.00008657,0.00001854,-0.00000443,0.00000351,0.00
 021900,0.00007591,0.00007029,0.00000751,0.00003036,0.00001625,-0.00000
 449,0.00000598,0.00000116,-0.00061885,-0.00015899,0.00023063,0.0000262
 5,0.00000416,-0.00011532,0.00072907,-0.00034755,-0.00030493,-0.0000630
 1,0.00010283,-0.00001703,0.00012451,0.00002187,-0.00005811,0.00004038,
 -0.00005616,0.00002198,-0.00001022,0.00001753,0.00001764,-0.00000803,0
 .00005364,-0.00006509,-0.00001721,-0.00001435,0.00001066,0.00045009,0.
 00098923,0.00673442,0.00054769,-0.00035542,0.00062687,0.00088776,0.000
 54783,0.00086011,-0.00014476,0.00021443,0.00050781,0.00295364,-0.05384
 592,0.02637649,0.00841609,0.06311328,0.00029910,-0.00006465,-0.0002280
 2,0.00005203,0.00004928,0.00027200,-0.00005664,-0.00002977,0.00008433,
 -0.00008662,-0.00005951,0.00007429,-0.00015000,-0.00008659,0.00056801,
 0.00033075,0.00010066,0.00019209,-0.00005117,-0.00000959,0.00006168,-0
 .00108382,-0.00039295,0.00008339,0.00086620,-0.00024768,0.00016610,0.0
 0215160,-0.00088123,-0.00077856,-0.00000353,0.00000960,-0.00000563,-0.
 00018025,-0.00005066,-0.00011734,0.00005729,0.00003998,-0.00006060,0.0
 0002110,-0.00000351,-0.00001001,0.00059228,0.00006876,-0.00019017,0.00
 007079,-0.00014606,0.00014111,-0.00055802,0.00033699,0.00023925,0.0000
 1427,-0.00015429,-0.00000662,-0.00003672,0.00001527,0.00012106,-0.0000
 4537,0.00004635,-0.00001596,-0.00000521,0.00001961,-0.00000801,-0.0000
 1527,-0.00002537,0.00006575,0.00003742,-0.00001171,-0.00001964,0.00127
 886,0.00361601,-0.01367198,-0.00179250,0.00014294,-0.00075635,-0.00241
 538,-0.00123705,0.00005478,0.00019578,-0.00032088,-0.00047436,0.016282
 25,0.03076470,-0.28462026,-0.02352409,-0.04208078,0.30923508,0.0012620
 8,-0.00028842,0.00008086,-0.00032350,0.00007766,0.00017221,-0.00016875
 ,0.00017705,-0.00016310,-0.00038845,-0.00034876,-0.00017545,-0.0036630
 9,0.00024585,-0.00006630,-0.00035149,0.00023256,0.00042045,-0.00017371
 ,0.00000914,-0.00003244,0.00059265,-0.00033927,-0.00033573,-0.00034186
 ,0.00017720,-0.00002329,-0.00018052,-0.00033371,-0.00457987,0.00004675
 ,-0.00000497,0.00000723,0.00017043,0.00001848,-0.00000447,0.00003648,0
 .00017882,0.00008022,0.00000467,0.00003220,-0.00001178,-0.00045264,-0.
 00017973,0.00021698,0.00003710,-0.00006640,0.00001745,0.00057326,-0.00
 017651,0.00004329,0.00002412,-0.00002172,-0.00001554,0.00015000,-0.000
 01801,-0.00004430,0.00002375,-0.00004675,0.00001495,-0.00000446,0.0000
 4772,0.00001625,-0.00005145,0.00010919,-0.00008240,-0.00000121,-0.0000
 4688,0.00001714,-0.01524581,0.02264326,0.01498472,-0.00024182,-0.00008
 236,-0.00042341,0.00253725,-0.00024429,0.00062331,-0.00006989,0.000149
 14,0.00032233,-0.10012615,0.09616028,0.05087795,0.00000262,0.00225250,
 0.00047303,0.10886740,-0.00058405,0.00005242,-0.00002985,0.00023562,0.
 00004727,0.00002151,0.00011562,-0.00000407,0.00006373,0.00020055,0.000
 16696,0.00007322,0.00087138,0.00020830,0.00008288,0.00036328,-0.000101
 30,-0.00036109,0.00013200,0.00000560,0.00001578,-0.00029567,0.00028041
 ,0.00020791,-0.00003020,0.00001740,0.00013554,-0.00068632,-0.00005576,
 0.00169618,-0.00003484,0.00000117,-0.00000337,-0.00023816,-0.00007531,
 -0.00003994,-0.00004990,-0.00008269,-0.00003048,-0.00001477,-0.0000140
 4,-0.00000305,-0.00043588,-0.00008482,0.00007528,0.00003321,0.00002054
 ,-0.00001532,0.00072380,-0.00054045,0.00006484,0.00007512,-0.00000113,
 -0.00001260,-0.00000309,0.00008895,-0.00009771,0.00003455,-0.00001973,
 -0.00000214,-0.00001385,-0.00000810,0.00000806,0.00011432,-0.00007169,
 0.00009854,-0.00005562,-0.00000692,-0.00002396,0.00468590,-0.00552493,
 -0.00539089,0.00002451,0.00001953,0.00016921,-0.00302637,0.00175631,0.
 00012233,-0.00012442,-0.00025030,-0.00030194,0.09071497,-0.19756731,-0
 .08368029,-0.00059380,0.00556452,0.00107264,-0.09092631,0.23292962,0.0
 0000489,-0.00013907,-0.00009327,0.00022128,0.00013733,0.00021121,0.000
 03787,0.00004048,0.00001299,-0.00000040,0.00001241,-0.00000488,-0.0011
 8825,0.00017366,0.00029798,0.00062983,-0.00004500,-0.00025141,0.000072
 13,0.00000665,0.00002668,-0.00118542,-0.00017273,0.00001984,0.00074656
 ,-0.00006405,0.00022006,-0.00032249,-0.00042658,-0.00180767,-0.0000255
 7,0.00000174,-0.00000253,-0.00035896,-0.00014045,-0.00011532,-0.000037
 85,-0.00000749,0.00000750,-0.00000533,-0.00000246,-0.00000746,0.000292
 53,0.00010008,-0.00007667,-0.00002437,-0.00006077,0.00009231,-0.000165
 30,0.00001652,0.00005928,0.00001079,-0.00000644,0.00000908,-0.00008970
 ,0.00006274,0.00002547,-0.00000765,0.00002517,-0.00002209,-0.00000361,
 -0.00001198,-0.00000382,0.00009774,-0.00008086,0.00008594,-0.00003878,
 -0.00001507,-0.00001516,-0.00875995,0.01068884,0.00624696,0.00025317,-
 0.00015614,-0.00007023,0.00094382,0.00117260,0.00128154,0.00000740,0.0
 0022209,0.00010304,0.05144189,-0.09014517,-0.10220760,0.01496658,-0.02
 468512,-0.01359117,-0.05404939,0.09365350,0.10247429,0.00241614,-0.000
 85542,0.00006320,-0.00093456,0.00010389,0.00014368,-0.00039582,0.00048
 221,-0.00033469,-0.00065123,-0.00019074,-0.00010449,-0.00253496,0.0012
 9548,-0.00027319,-0.00151890,0.00101303,0.00119495,-0.00057785,0.00015
 845,-0.00006018,0.00133768,-0.00086811,0.00046569,-0.00256503,0.000402
 37,0.00105801,0.00037626,-0.00073298,-0.00044400,0.00013951,-0.0000226
 0,0.00001959,0.00072077,0.00015332,0.00006397,0.00035053,0.00019762,0.
 00003723,0.00001343,0.00003016,-0.00000530,0.00012207,-0.00035577,0.00
 017001,0.00011260,-0.00008060,0.00005147,0.00070737,0.00487503,-0.0015
 1824,-0.00093904,0.00051871,0.00059150,0.00008592,-0.00031325,0.000076
 87,-0.00000093,-0.00004587,0.00000807,0.00005592,0.00013575,0.00001795
 ,-0.00016334,0.00042037,-0.00028825,0.00002803,-0.00016964,0.00005427,
 -0.02032431,-0.03390446,0.00743092,0.00281063,-0.00196264,0.00145037,-
 0.00952406,-0.00089311,-0.00232846,-0.00003986,-0.00202404,-0.00124378
 ,-0.14498240,-0.03944798,0.01499298,-0.00737225,-0.01429786,0.00726222
 ,0.01005278,0.00402847,-0.00393631,0.36044003,0.00161592,-0.00214509,-
 0.00039545,0.00047354,0.00103975,0.00082064,0.00008914,0.00107752,-0.0
 0024455,-0.00037645,0.00038782,0.00005368,-0.00325044,0.00265934,0.000
 38422,0.00261809,0.00131642,-0.00142075,-0.00001097,0.00031811,0.00002
 023,-0.00444861,-0.00127046,-0.00017980,0.00330998,-0.00029422,0.00011
 227,0.00087650,-0.00223860,-0.00105433,-0.00002976,-0.00003266,0.00001
 169,-0.00120171,-0.00088076,-0.00044618,0.00022234,0.00001164,0.000013
 37,-0.00009622,-0.00001176,-0.00003881,-0.00441677,-0.00202161,0.00138
 553,0.00057872,-0.00024671,0.00024986,0.00879359,-0.00586784,0.0011074
 1,0.00081550,-0.00036981,-0.00093798,0.00092200,0.00073927,-0.00077104
 ,0.00041720,-0.00043137,0.00005288,-0.00016606,0.00025446,0.00019331,0
 .00073472,0.00002231,0.00040466,-0.00047697,-0.00043805,-0.00011883,-0
 .00461564,-0.00830216,0.00316879,0.00137760,0.00198948,-0.00179876,-0.
 00516747,0.00260648,-0.00087825,0.00059250,-0.00097085,-0.00076811,-0.
 08681727,-0.17861533,0.02107680,-0.01554202,-0.01604635,0.01053001,-0.
 02626354,-0.03531012,0.00812973,-0.09722285,0.58752634,0.00005199,-0.0
 0016390,-0.00075993,0.00069416,0.00034835,0.00068964,-0.00004463,-0.00
 005582,0.00023127,0.00001383,0.00009884,0.00020044,0.00008864,0.000497
 82,0.00115297,0.00260315,-0.00035862,-0.00060237,0.00007127,-0.0000141
 2,0.00017202,-0.00491568,0.00048029,-0.00129426,0.00412052,-0.00029506
 ,0.00028386,0.00010779,-0.00127528,-0.00107012,-0.00005991,0.00002093,
 -0.00001640,-0.00106862,-0.00049720,-0.00040759,0.00005872,-0.00003000
 ,-0.00009653,0.00002333,0.00000274,-0.00003739,0.00201289,0.00082193,-
 0.00044964,0.00008376,-0.00020332,0.00026068,-0.00291983,0.00183469,0.
 00228960,0.00059204,-0.00079429,-0.00010349,-0.00041898,0.00000028,0.0
 0021646,-0.00016956,0.00018401,-0.00006758,0.00002617,-0.00002012,-0.0
 0003836,0.00006082,-0.00015978,0.00030726,0.00003461,-0.00000620,-0.00
 006228,-0.00852764,-0.00764161,0.00335772,0.00103755,-0.00315702,0.002
 79052,-0.00444069,-0.00199941,-0.00032669,0.00004311,-0.00069472,-0.00
 078983,0.02331244,0.02125237,-0.06899516,0.02169797,0.03040866,0.00247
 904,-0.00777775,-0.00554817,0.00677863,-0.04127819,-0.02403253,0.06206
 368,-0.00075476,-0.00051299,-0.00026192,0.00078121,0.00040483,0.000277
 85,0.00029567,0.00025388,0.00009005,0.00023964,0.00034073,0.00013059,0
 .00032210,0.00088417,0.00026689,0.00203026,0.00022643,-0.00125884,0.00
 034603,0.00006166,0.00004612,-0.00312162,-0.00021976,0.00067135,0.0001
 9394,-0.00002687,0.00175884,-0.00083620,-0.00103626,0.00015541,-0.0000
 9947,0.00000066,-0.00000715,-0.00096150,-0.00047030,-0.00024931,-0.000
 05844,-0.00013358,-0.00004350,-0.00005440,-0.00001761,-0.00002059,-0.0
 0477065,0.00127678,0.00025846,0.00014264,-0.00003639,0.00001652,-0.001
 60844,-0.00358013,0.00214090,0.00168445,-0.00107264,-0.00082976,0.0000
 9097,0.00040095,-0.00037797,0.00022334,-0.00013297,-0.00000319,-0.0000
 8979,-0.00002884,0.00005766,0.00052575,-0.00029029,0.00037991,-0.00027
 855,-0.00010330,-0.00009959,0.00066653,-0.00456769,0.00072577,-0.00023
 797,0.00000060,-0.00154931,-0.00110803,0.00166886,-0.00014705,0.000074
 49,-0.00026029,-0.00023759,0.01490423,-0.02815082,-0.00177246,-0.00098
 537,-0.00122837,0.00097508,-0.00263706,-0.00529539,0.00073558,-0.18700
 830,0.22646633,0.01550494,0.18191075,-0.00080345,0.00145479,-0.0000450
 2,-0.00001019,-0.00051921,-0.00021899,-0.00020942,-0.00084812,0.000177
 68,0.00019631,-0.00025904,-0.00002511,0.00172136,-0.00144808,0.0000123
 5,0.00021969,-0.00141117,0.00054687,-0.00005146,-0.00022933,0.00006094
 ,-0.00086361,0.00151215,-0.00169100,0.00094925,0.00049076,0.00022298,-
 0.00139921,0.00100696,0.00045409,0.00001566,0.00003271,-0.00001065,0.0
 0024418,0.00029628,0.00005747,-0.00011294,-0.00000896,0.00000182,0.000
 09095,0.00002109,0.00002403,0.00628738,0.00364192,-0.00182421,-0.00095
 761,0.00003107,0.00000082,-0.00598479,-0.00083620,-0.00105565,-0.00164
 966,0.00055108,0.00081582,-0.00131083,-0.00096332,0.00100124,-0.000581
 30,0.00060994,-0.00007725,0.00023249,-0.00024438,-0.00020593,-0.000712
 04,-0.00000878,-0.00039296,0.00045885,0.00036874,0.00012994,-0.0003374
 7,0.00206909,-0.00143341,-0.00105305,0.00087356,-0.00051389,0.00260997
 ,0.00066391,0.00032909,-0.00041704,0.00061501,0.00037690,0.01118084,-0
 .03563332,-0.00013627,0.00099743,0.00072755,-0.00085438,-0.00298575,-0
 .00153982,0.00181757,0.17930972,-0.34528832,-0.00869798,-0.18522574,0.
 37468849,-0.00003997,0.00007863,0.00071274,-0.00079270,-0.00039869,-0.
 00066816,0.00007997,0.00009810,-0.00019729,-0.00002605,-0.00007400,-0.
 00013063,-0.00000844,-0.00060115,-0.00088432,-0.00323518,0.00046968,0.
 00107468,-0.00008357,0.00003175,-0.00016480,0.00660691,-0.00109544,0.0
 0128269,-0.00209002,0.00007462,-0.00249575,-0.00051783,0.00136457,0.00
 035449,0.00006030,-0.00002051,0.00001333,0.00121906,0.00059020,0.00044
 647,-0.00001582,0.00002676,0.00003847,-0.00002326,-0.00000961,0.000028
 25,-0.00266518,-0.00176303,0.00093948,-0.00007023,0.00020998,-0.000330
 14,0.00477589,-0.00243161,-0.00445103,-0.00155952,0.00177068,-0.000201
 32,0.00068149,0.00012944,-0.00039956,0.00026538,-0.00027691,0.00007379
 ,-0.00005463,0.00004521,0.00006708,-0.00000409,0.00015488,-0.00023031,
 -0.00006687,-0.00001741,0.00004112,0.00008258,-0.00244346,0.00252262,-
 0.00097228,0.00034464,-0.00158209,0.00065690,0.00128336,-0.00049294,-0
 .00030270,0.00015315,0.00020362,-0.00191790,0.00495262,-0.00164500,0.0
 0056050,0.00207804,-0.00041028,-0.00074994,-0.00193943,0.00000486,0.01
 701502,-0.01390298,-0.00909633,-0.01701150,0.01107019,0.01580521,0.004
 26846,-0.00020348,-0.00289885,0.00005541,-0.00040406,0.00109842,-0.001
 16070,0.00116713,-0.00028048,-0.00046376,-0.00049120,0.00041316,-0.012
 35993,0.01811834,-0.03379596,-0.00002358,0.00099200,-0.00019905,-0.000
 16076,-0.00003253,0.00023661,0.00170993,-0.00382978,0.00459516,0.00005
 445,0.00056041,0.00037859,-0.04846487,-0.01597237,0.02236674,-0.000042
 80,0.00001092,-0.00001690,-0.00021811,0.00040609,-0.00017429,0.0003107
 7,0.00040128,-0.00018638,-0.00011982,0.00035122,-0.00015289,0.00048206
 ,-0.00128259,-0.00064189,-0.00037007,-0.00009191,-0.00011950,0.0001946
 0,0.00000596,-0.00014117,-0.00004601,0.00006338,0.00002986,-0.00035479
 ,-0.00006364,0.00017476,0.00003725,-0.00001735,-0.00002131,0.00003769,
 -0.00006015,-0.00001179,0.00036471,-0.00003509,0.00020157,-0.00022154,
 -0.00027017,-0.00003678,-0.00558533,-0.01636596,0.01866926,-0.00292227
 ,0.00172174,0.00341623,0.00189002,0.00008159,-0.00253239,-0.00055521,0
 .00070769,0.00027401,0.00131227,-0.00148846,0.00220598,-0.00027760,0.0
 0025943,-0.00095544,0.00004050,0.00005536,-0.00026275,-0.00023686,0.00
 019907,-0.00061822,0.00017854,0.00015149,0.00020365,0.06264738,-0.0023
 0442,0.00074368,0.00169775,-0.00002652,0.00011658,-0.00118969,0.000534
 95,-0.00009650,-0.00006182,0.00097189,0.00047864,0.00014362,0.00774368
 ,0.00543260,0.00312854,0.00047437,0.00578325,-0.00055795,0.00015660,0.
 00002695,-0.00027310,-0.00645993,-0.02498128,0.02357312,-0.00054512,0.
 00030917,-0.00047933,-0.01886795,-0.14672676,0.10862621,0.00004592,-0.
 00004049,0.00002329,0.00075634,-0.00060998,0.00034682,-0.00015780,-0.0
 0044850,-0.00010696,-0.00002964,-0.00007753,0.00004487,-0.00022798,-0.
 00397662,-0.00492957,0.00010951,0.00065427,0.00007787,-0.00079540,-0.0
 0044634,0.00067000,-0.00018360,-0.00010401,0.00024422,-0.00075388,0.00
 010643,0.00101934,0.00016113,-0.00009849,0.00009745,-0.00003504,-0.000
 18944,-0.00009252,0.00067040,-0.00054843,0.00024690,-0.00020078,0.0000
 0511,-0.00002999,0.00372310,0.00296743,-0.00836888,0.00103748,-0.00034
 373,-0.00139505,-0.00016120,0.00251319,0.00068058,0.00015246,-0.000469
 15,-0.00013034,-0.00085053,0.00014765,0.00018892,-0.00082369,-0.000058
 70,-0.00015615,-0.00013771,0.00009952,-0.00010172,0.00026333,0.0008331
 2,-0.00030574,0.00040436,-0.00041706,0.00004772,0.01535566,0.15941542,
 0.00540936,-0.00106456,-0.00211665,-0.00028606,0.00010988,0.00146427,-
 0.00110142,0.00098980,-0.00027462,-0.00132684,-0.00096199,-0.00004971,
 -0.02004650,0.00854065,-0.01954612,-0.00122849,-0.00042090,0.00204934,
 -0.00035294,-0.00001995,0.00022124,0.00004711,-0.00949783,0.00494612,0
 .00056639,0.00114557,0.00045811,0.02265368,0.11172532,-0.16607733,0.00
 001600,0.00002018,-0.00000521,-0.00010655,0.00022571,-0.00027465,0.000
 26016,0.00074118,-0.00010527,-0.00002803,0.00024252,-0.00011467,0.0002
 7269,-0.00200143,-0.00093825,-0.00012958,-0.00035209,0.00032149,0.0002
 0467,0.00014969,0.00018993,-0.00005999,-0.00008991,-0.00000106,0.00007
 101,-0.00019699,0.00028242,-0.00002417,-0.00004128,0.00006974,-0.00001
 617,0.00005009,-0.00002220,0.00022826,-0.00001820,0.00022731,-0.000140
 47,-0.00028658,-0.00003834,0.00648514,0.01593815,-0.01720770,0.0022765
 5,-0.00147134,-0.00208055,-0.00072381,-0.00101428,0.00318776,-0.000984
 02,0.00109000,-0.00078675,-0.00092016,0.00005615,-0.00108996,0.0007104
 6,-0.00018437,0.00112702,0.00016675,-0.00008091,0.00031163,-0.00035287
 ,-0.00072672,0.00094019,-0.00032220,0.00008288,-0.00022896,-0.01121797
 ,-0.12267842,0.19516144\\0.00003820,-0.00002703,-0.00002483,0.00002786
 ,0.00002771,0.00004931,-0.00000427,0.00000277,-0.00002355,0.00001072,-
 0.00000422,0.00000278,-0.00000681,0.00002024,-0.00000579,-0.00002846,0
 .00000105,-0.00002288,0.00000363,0.00000516,0.00000038,0.00002389,0.00
 000532,-0.00000312,-0.00000456,0.00000233,-0.00000261,-0.00003665,-0.0
 0002020,0.00000446,0.00000018,-0.00000475,-0.00000021,-0.00001198,-0.0
 0001754,0.00000551,-0.00000664,-0.00000560,0.00000634,-0.00000065,0.00
 000578,0.00000848,0.00000352,-0.00001258,-0.00000374,0.00000202,-0.000
 00118,0.00000518,0.00001128,-0.00000077,0.00000405,-0.00000534,0.00000
 272,0.00000054,0.00001587,0.00000334,0.00005892,-0.00001113,-0.0000033
 5,-0.00000580,-0.00000371,0.00000124,-0.00001349,0.00000474,0.00002499
 ,-0.00002955,-0.00002544,-0.00000361,0.00000158,0.00001284,0.00000273,
 -0.00000751,-0.00000131,-0.00000298,0.00000227,-0.00001132,0.00000244,
 -0.00000793,0.00000030,-0.00000577,0.00000017,-0.00000302,-0.00000024,
 0.00000110,0.00000257,0.00000585,-0.00000204,0.00000195,0.00000088,0.0
 0000144,0.00000694,0.00000271,-0.00000599,-0.00000703,-0.00000944,0.00
 000440,0.00000181,0.00000200,0.00000214\\\@
 The archive entry for this job was punched.


 Make no judgements where you have no compassion.
                               -- Anne McCaffrey
 Job cpu time:       1 days  4 hours 18 minutes 59.5 seconds.
 Elapsed time:       0 days  7 hours  6 minutes 22.7 seconds.
 File lengths (MBytes):  RWF=   1379 Int=      0 D2E=      0 Chk=     47 Scr=      1
 Normal termination of Gaussian 16 at Fri Feb 16 11:26:09 2024.
