 Entering Gaussian System, Link 0=/opt/software/gaussian/g16.c01/g16
 Initial command:
 /opt/software/gaussian/g16.c01/l1.exe "/scratch/arhender/25003221/Gau-8651.inp" -scrdir="/scratch/arhender/25003221/"
 Entering Link 1 = /opt/software/gaussian/g16.c01/l1.exe PID=      8653.
  
 Copyright (c) 1988-2019, Gaussian, Inc.  All Rights Reserved.
  
 This is part of the Gaussian(R) 16 program.  It is based on
 the Gaussian(R) 09 system (copyright 2009, Gaussian, Inc.),
 the Gaussian(R) 03 system (copyright 2003, Gaussian, Inc.),
 the Gaussian(R) 98 system (copyright 1998, Gaussian, Inc.),
 the Gaussian(R) 94 system (copyright 1995, Gaussian, Inc.),
 the Gaussian 92(TM) system (copyright 1992, Gaussian, Inc.),
 the Gaussian 90(TM) system (copyright 1990, Gaussian, Inc.),
 the Gaussian 88(TM) system (copyright 1988, Gaussian, Inc.),
 the Gaussian 86(TM) system (copyright 1986, Carnegie Mellon
 University), and the Gaussian 82(TM) system (copyright 1983,
 Carnegie Mellon University). Gaussian is a federally registered
 trademark of Gaussian, Inc.
  
 This software contains proprietary and confidential information,
 including trade secrets, belonging to Gaussian, Inc.
  
 This software is provided under written license and may be
 used, copied, transmitted, or stored only in accord with that
 written license.
  
 The following legend is applicable only to US Government
 contracts under FAR:
  
                    RESTRICTED RIGHTS LEGEND
  
 Use, reproduction and disclosure by the US Government is
 subject to restrictions as set forth in subparagraphs (a)
 and (c) of the Commercial Computer Software - Restricted
 Rights clause in FAR 52.227-19.
  
 Gaussian, Inc.
 340 Quinnipiac St., Bldg. 40, Wallingford CT 06492
  
  
 ---------------------------------------------------------------
 Warning -- This program may not be used in any manner that
 competes with the business of Gaussian, Inc. or will provide
 assistance to any competitor of Gaussian, Inc.  The licensee
 of this program is prohibited from giving any competitor of
 Gaussian, Inc. access to this program.  By using this program,
 the user acknowledges that Gaussian, Inc. is engaged in the
 business of creating and licensing software in the field of
 computational chemistry and represents and warrants to the
 licensee that it is not a competitor of Gaussian, Inc. and that
 it will not use this program in any manner prohibited above.
 ---------------------------------------------------------------
  

 Cite this work as:
 Gaussian 16, Revision C.01,
 M. J. Frisch, G. W. Trucks, H. B. Schlegel, G. E. Scuseria, 
 M. A. Robb, J. R. Cheeseman, G. Scalmani, V. Barone, 
 G. A. Petersson, H. Nakatsuji, X. Li, M. Caricato, A. V. Marenich, 
 J. Bloino, B. G. Janesko, R. Gomperts, B. Mennucci, H. P. Hratchian, 
 J. V. Ortiz, A. F. Izmaylov, J. L. Sonnenberg, D. Williams-Young, 
 F. Ding, F. Lipparini, F. Egidi, J. Goings, B. Peng, A. Petrone, 
 T. Henderson, D. Ranasinghe, V. G. Zakrzewski, J. Gao, N. Rega, 
 G. Zheng, W. Liang, M. Hada, M. Ehara, K. Toyota, R. Fukuda, 
 J. Hasegawa, M. Ishida, T. Nakajima, Y. Honda, O. Kitao, H. Nakai, 
 T. Vreven, K. Throssell, J. A. Montgomery, Jr., J. E. Peralta, 
 F. Ogliaro, M. J. Bearpark, J. J. Heyd, E. N. Brothers, K. N. Kudin, 
 V. N. Staroverov, T. A. Keith, R. Kobayashi, J. Normand, 
 K. Raghavachari, A. P. Rendell, J. C. Burant, S. S. Iyengar, 
 J. Tomasi, M. Cossi, J. M. Millam, M. Klene, C. Adamo, R. Cammi, 
 J. W. Ochterski, R. L. Martin, K. Morokuma, O. Farkas, 
 J. B. Foresman, and D. J. Fox, Gaussian, Inc., Wallingford CT, 2019.
 
 ******************************************
 Gaussian 16:  ES64L-G16RevC.01  3-Jul-2019
                11-Feb-2024 
 ******************************************
 %chk=PmonoL_HbiL_mannitol_IRC_reverse.chk
 %mem=1600MB
 %nprocs=4
 Will use up to    4 processors via shared memory.
 ----------------------------------------------------------------------
 # irc=(reverse,calcfc,maxpoints=50,maxcycle=50) wb97xd/def2tzvpp geom=
 connectivity
 ----------------------------------------------------------------------
 1/6=50,10=4,18=10,22=2,26=3,38=1,42=50,44=3,57=2,172=1/1,23;
 2/12=2,17=6,18=5,29=1,40=1/2;
 3/5=44,7=202,11=2,25=1,30=1,71=2,74=-58,140=1/1,2,3;
 4//1;
 5/5=2,38=5/2;
 8/6=4,10=90,11=11/1;
 11/6=1,8=1,9=11,15=111,16=1/1,2,10;
 10/6=1,13=1/2;
 6/7=2,8=2,9=2,10=2,28=1/1;
 7/10=1,25=1/1,2,3,16;
 1/6=50,10=4,18=10,22=2,26=3,42=50,44=3/23(2);
 2/29=1/2;
 99/5=20/99;
 2/29=1/2;
 3/5=44,7=202,11=2,25=1,30=1,71=2,74=-58,140=1/1,2,3;
 4/5=5,16=3,69=1/1;
 5/5=2,38=5/2;
 8/6=4,10=90,11=11/1;
 11/6=1,8=1,9=11,15=111,16=1/1,2,10;
 10/6=1,13=1/2;
 7/10=1,25=1/1,2,3,16;
 1/6=50,18=10,22=2,26=3,42=50,44=3/23(-8);
 2/29=1/2;
 6/7=2,8=2,9=2,10=2,19=2,28=1/1;
 99/5=20,9=1/99;
 ----------------------------
 Mannitol P(L)1 to H(=L)1 IRC
 ----------------------------
 Symbolic Z-matrix:
 Charge = -2 Multiplicity = 1
 Si                   -2.06978  -0.54968   0.01426 
 O                    -1.85984  -1.33376   1.54518 
 O                    -2.01508   0.79597  -1.11053 
 O                    -2.76933  -1.80206  -0.92029 
 O                    -0.40502  -0.97962  -0.54583 
 O                    -0.48762   0.87921   1.40333 
 O                    -3.57835   0.15804   0.58207 
 C                     0.72413   0.60463   0.87443 
 H                     1.5525    0.63395   1.62904 
 C                     0.69653  -0.83437   0.28779 
 H                    -3.72752  -0.26405   1.42439 
 H                    -1.30395  -0.6765    1.99275 
 H                    -2.03983  -2.28626  -1.29934 
 H                    -2.87966   1.19265  -1.00154 
 C                     1.15007   1.63702  -0.20785 
 H                     0.87257   1.26001  -1.1977 
 O                     2.59651   1.7801   -0.14708 
 H                     2.88868   2.08807  -1.00282 
 C                     0.48072   2.99893  -0.03714 
 H                     0.26067   3.14986   1.02618 
 H                     1.19034   3.77283  -0.36521 
 O                    -0.67379   3.13388  -0.82123 
 H                    -1.15089   2.27026  -0.80281 
 C                     1.91589  -1.33979  -0.50309 
 H                     2.18738  -0.61734  -1.28639 
 O                     1.53894  -2.56491  -1.12052 
 H                     0.58033  -2.43388  -1.21237 
 C                     3.15956  -1.60882   0.34268 
 H                     2.84651  -1.9613    1.33526 
 H                     3.71359  -2.42172  -0.13606 
 O                     4.04186  -0.51075   0.46247 
 H                     3.52068   0.30375   0.37987 
 H                     0.59784  -1.50945   1.15561 
 
 IRC-IRC-IRC-IRC-IRC-IRC-IRC-IRC-IRC-IRC-IRC-IRC-IRC-IRC-IRC-IRC-IRC-IRC
 ------------------------------------------------------------------------
 INPUT DATA FOR L123
 ------------------------------------------------------------------------
 GENERAL PARAMETERS:
 Rxn path following direction = Reverse
 Maximum points per path      =  50
 Step size                    =   0.100 bohr
 Integration scheme           = HPC                                 
    Redo corrector integration= Yes                                 
    DWI Weight Power          =  2
    DWI will use Hessian update vectors when possible.
    Max correction cycles     =  50
 Initial Hessian              = CalcFC
 Hessian evaluation           = All updating
 Hessian updating method      = Bofill                              
 ------------------------------------------------------------------------
 IRC-IRC-IRC-IRC-IRC-IRC-IRC-IRC-IRC-IRC-IRC-IRC-IRC-IRC-IRC-IRC-IRC-IRC
                          Input orientation:                          
 ---------------------------------------------------------------------
 Center     Atomic      Atomic             Coordinates (Angstroms)
 Number     Number       Type             X           Y           Z
 ---------------------------------------------------------------------
      1         14           0       -2.069777   -0.549675    0.014259
      2          8           0       -1.859835   -1.333764    1.545177
      3          8           0       -2.015081    0.795974   -1.110531
      4          8           0       -2.769331   -1.802057   -0.920288
      5          8           0       -0.405015   -0.979618   -0.545826
      6          8           0       -0.487617    0.879207    1.403334
      7          8           0       -3.578352    0.158039    0.582067
      8          6           0        0.724127    0.604634    0.874429
      9          1           0        1.552501    0.633950    1.629042
     10          6           0        0.696528   -0.834367    0.287790
     11          1           0       -3.727520   -0.264047    1.424386
     12          1           0       -1.303949   -0.676502    1.992754
     13          1           0       -2.039827   -2.286263   -1.299340
     14          1           0       -2.879661    1.192650   -1.001542
     15          6           0        1.150072    1.637017   -0.207848
     16          1           0        0.872568    1.260007   -1.197698
     17          8           0        2.596513    1.780096   -0.147081
     18          1           0        2.888678    2.088074   -1.002824
     19          6           0        0.480718    2.998931   -0.037137
     20          1           0        0.260669    3.149864    1.026180
     21          1           0        1.190340    3.772831   -0.365205
     22          8           0       -0.673793    3.133884   -0.821228
     23          1           0       -1.150888    2.270263   -0.802813
     24          6           0        1.915885   -1.339785   -0.503092
     25          1           0        2.187378   -0.617335   -1.286388
     26          8           0        1.538935   -2.564906   -1.120519
     27          1           0        0.580334   -2.433876   -1.212367
     28          6           0        3.159558   -1.608820    0.342681
     29          1           0        2.846506   -1.961295    1.335258
     30          1           0        3.713592   -2.421716   -0.136064
     31          8           0        4.041865   -0.510746    0.462468
     32          1           0        3.520681    0.303750    0.379869
     33          1           0        0.597835   -1.509447    1.155607
 ---------------------------------------------------------------------
                    Distance matrix (angstroms):
                    1          2          3          4          5
     1  Si   0.000000
     2  O    1.732796   0.000000
     3  O    1.754684   3.407737   0.000000
     4  O    1.712079   2.669269   2.711983   0.000000
     5  O    1.808308   2.571811   2.462505   2.531130   0.000000
     6  O    2.544497   2.607747   2.942718   4.218366   2.694676
     7  O    1.760416   2.471105   2.390746   2.598762   3.554782
     8  C    3.142964   3.299113   3.388206   4.606237   2.408722
     9  H    4.138767   3.939920   4.501017   5.577763   3.341485
    10  C    2.794336   2.892302   3.459210   3.795794   1.389032
    11  H    2.195029   2.155721   3.237576   2.963292   3.928462
    12  H    2.125328   0.970220   3.507745   3.449642   2.710046
    13  H    2.177654   3.005150   3.088114   0.954103   2.224346
    14  H    2.173352   3.729422   0.957460   2.997840   3.324199
    15  C    3.898510   4.578010   3.397114   5.262748   3.062565
    16  H    3.660763   4.660154   2.925994   4.766196   2.659525
    17  O    5.218058   5.693760   4.812851   6.497842   4.096851
    18  H    5.707754   6.383546   5.072275   6.866804   4.524157
    19  C    4.370386   5.172442   3.497743   5.864491   4.107571
    20  H    4.487934   4.986864   3.909651   6.123002   4.468440
    21  H    5.427376   6.247435   4.437557   6.860502   5.016329
    22  O    4.026837   5.192923   2.710825   5.363264   4.131463
    23  H    3.076364   4.359435   1.736389   4.383714   3.344263
    24  C    4.096026   4.295521   4.514747   4.726415   2.349069
    25  H    4.451924   4.991088   4.437232   5.109458   2.720328
    26  O    4.286220   4.491468   4.891487   4.379862   2.573393
    27  H    3.475329   3.843009   4.144693   3.421222   1.878844
    28  C    5.345614   5.168748   5.888272   6.064994   3.727133
    29  H    5.282759   4.752632   6.100774   6.053963   3.882596
    30  H    6.080665   5.922271   6.642350   6.559518   4.382976
    31  O    6.128179   6.056375   6.392843   7.069080   4.583802
    32  H    5.667030   5.743635   5.753976   6.759370   4.232615
    33  H    3.056140   2.494548   4.156643   3.966455   2.044823
                    6          7          8          9         10
     6  O    0.000000
     7  O    3.278293   0.000000
     8  C    1.350353   4.335464   0.000000
     9  H    2.067166   5.258165   1.120939   0.000000
    10  C    2.362832   4.398416   1.554230   2.165087   0.000000
    11  H    3.435760   0.953891   4.568831   5.359749   4.603185
    12  H    1.853117   2.803463   2.646706   3.163681   2.633198
    13  H    4.442297   3.446935   4.552142   5.477945   3.480607
    14  H    3.406398   2.016533   4.105157   5.184224   4.308167
    15  C    2.419134   5.016905   1.555174   2.131257   2.561074
    16  H    2.959811   4.918596   2.178361   2.974007   2.573726
    17  O    3.567527   6.425861   2.435369   2.357589   3.261054
    18  H    4.318602   6.932488   3.226446   3.290374   3.874515
    19  C    2.739682   4.993008   2.573492   3.085127   3.853093
    20  H    2.420343   4.887365   2.591528   2.891729   4.075450
    21  H    3.783693   6.058421   3.433878   3.736409   4.679372
    22  O    3.172839   4.388776   3.350603   4.148479   4.342202
    23  H    2.691106   3.503136   3.017141   3.987449   3.773737
    24  C    3.786186   5.797214   2.664323   2.928084   1.538757
    25  H    4.077970   6.110317   2.881569   3.235508   2.178939
    26  O    4.726379   6.041511   3.832716   4.218169   2.384900
    27  H    4.354185   5.218495   3.688894   4.293049   2.195997
    28  C    4.540611   6.969830   3.333685   3.044236   2.582500
    29  H    4.380578   6.807178   3.361673   2.914799   2.643778
    30  H    5.560215   7.768095   4.372275   4.137996   3.435405
    31  O    4.830466   7.650443   3.524368   2.977945   3.365490
    32  H    4.176731   7.103407   2.855842   2.354400   3.046248
    33  H    2.635383   4.533210   2.136434   2.393675   1.103893
                   11         12         13         14         15
    11  H    0.000000
    12  H    2.523263   0.000000
    13  H    3.788977   3.737744   0.000000
    14  H    2.953973   3.865541   3.591217   0.000000
    15  C    5.483533   4.027063   5.172904   4.131121   0.000000
    16  H    5.509889   4.320449   4.590033   3.757956   1.094965
    17  O    6.829453   5.082064   6.273645   5.573480   1.454770
    18  H    7.429529   5.847605   6.596431   5.837424   1.964228
    19  C    5.521987   4.562269   5.989957   3.935083   1.527084
    20  H    5.264884   4.245394   6.344431   4.219480   2.145360
    21  H    6.609415   5.619432   6.929589   4.860778   2.141981
    22  O    5.090576   4.778560   5.610048   2.943935   2.437894
    23  H    4.245253   4.064732   4.668906   2.046802   2.459553
    24  C    6.059736   4.127532   4.144573   5.446002   3.087878
    25  H    6.516067   4.790160   4.544750   5.388141   2.705800
    26  O    6.285383   4.619581   3.594045   5.801497   4.317446
    27  H    5.497111   4.112382   2.625757   5.016742   4.231528
    28  C    7.100024   4.849212   5.494430   6.791711   3.857016
    29  H    6.790170   4.394232   5.560842   6.942405   4.266956
    30  H    7.903207   5.723055   5.871404   7.568598   4.801052
    31  O    7.832592   5.563001   6.575972   7.276840   3.663970
    32  H    7.345055   5.180670   6.359808   6.607785   2.782589
    33  H    4.509097   2.238614   3.686118   4.903835   3.473357
                   16         17         18         19         20
    16  H    0.000000
    17  O    2.084772   0.000000
    18  H    2.188235   0.955252   0.000000
    19  C    2.127041   2.444225   2.749633   0.000000
    20  H    2.981881   2.951097   3.485783   1.096287   0.000000
    21  H    2.666141   2.448651   2.475746   1.100051   1.785589
    22  O    2.458531   3.603071   3.717243   1.402108   2.070360
    23  H    2.295850   3.835787   4.048616   1.944056   2.472126
    24  C    2.886158   3.213045   3.598093   4.593612   5.023481
    25  H    2.293688   2.685719   2.809176   4.189355   4.822029
    26  O    3.883293   4.576581   4.846223   5.766266   6.237057
    27  H    3.705454   4.791385   5.081377   5.559360   6.024237
    28  C    3.979103   3.470106   3.943448   5.343390   5.613894
    29  H    4.548525   4.032100   4.676088   5.664297   5.736378
    30  H    4.770070   4.347782   4.665829   6.312264   6.657026
    31  O    3.992012   2.776427   3.198560   5.024859   5.292946
    32  H    3.227328   1.819714   2.344159   4.084026   4.375587
    33  H    3.644640   4.063595   4.780057   4.664957   4.673287
                   21         22         23         24         25
    21  H    0.000000
    22  O    2.022672   0.000000
    23  H    2.816125   0.986813   0.000000
    24  C    5.165682   5.178934   4.746301   0.000000
    25  H    4.595239   4.740709   4.440280   1.099634   0.000000
    26  O    6.392099   6.120617   5.542106   1.422754   2.059375
    27  H    6.293886   5.720645   5.029293   1.866495   2.426498
    28  C    5.774174   6.208261   5.910955   1.527886   2.140571
    29  H    6.206018   6.557727   6.201338   2.152176   3.018892
    30  H    6.692662   7.112193   6.791346   2.130032   2.628377
    31  O    5.212031   6.096608   6.024917   2.477782   2.551270
    32  H    4.245014   5.200568   5.204754   2.460934   2.324329
    33  H    5.528688   5.204367   4.602135   2.125400   3.047269
                   26         27         28         29         30
    26  O    0.000000
    27  H    0.971865   0.000000
    28  C    2.383584   3.122705   0.000000
    29  H    2.846916   3.442276   1.098840   0.000000
    30  H    2.391399   3.312987   1.094052   1.768789   0.000000
    31  O    3.604175   4.299500   1.413712   2.072375   2.029239
    32  H    3.795743   4.321510   1.946719   2.549060   2.780569
    33  H    2.679629   2.542081   2.689451   2.300644   3.494079
                   31         32         33
    31  O    0.000000
    32  H    0.970494   0.000000
    33  H    3.652285   3.525972   0.000000
 Symmetry turned off by external request.
 Stoichiometry    C6H16O10Si(2-)
 Framework group  C1[X(C6H16O10Si)]
 Deg. of freedom    93
 Full point group                 C1      NOp   1
 Rotational constants (GHZ):           0.5637350           0.3484072           0.2556564
 Standard basis: def2TZVPP (5D, 7F)
   762 basis functions,  1157 primitive gaussians,   864 cartesian basis functions
    74 alpha electrons       74 beta electrons
       nuclear repulsion energy      1688.6954399477 Hartrees.
 NAtoms=   33 NActive=   33 NUniq=   33 SFac= 1.00D+00 NAtFMM=   60 NAOKFM=F Big=F
 Integral buffers will be    131072 words long.
 Raffenetti 2 integral format.
 Two-electron integral symmetry is turned off.
 Nuclear repulsion after empirical dispersion term =     1688.6674725452 Hartrees.
 One-electron integrals computed using PRISM.
   1 Symmetry operations used in ECPInt.
 ECPInt:  NShTT=   41041 NPrTT=  113485 LenC2=   37111 LenP2D=   76001.
 LDataN:  DoStor=T MaxTD1= 6 Len=  172
 NBasis=   762 RedAO= T EigKep=  4.37D-05  NBF=   762
 NBsUse=   762 1.00D-06 EigRej= -1.00D+00 NBFU=   762
 ExpMin= 7.01D-02 ExpMax= 4.48D+04 ExpMxC= 1.53D+03 IAcc=3 IRadAn=         5 AccDes= 0.00D+00
 Harris functional with IExCor= 4639 and IRadAn=       5 diagonalized for initial guess.
 HarFok:  IExCor= 4639 AccDes= 0.00D+00 IRadAn=         5 IDoV= 1 UseB2=F ITyADJ=14
 ICtDFT=  3500011 ScaDFX=  1.000000  1.000000  1.000000  1.000000
 FoFCou: FMM=F IPFlag=           0 FMFlag=      100000 FMFlg1=           0
         NFxFlg=           0 DoJE=T BraDBF=F KetDBF=T FulRan=T
         wScrn=  0.000000 ICntrl=       500 IOpCl=  0 I1Cent=   200000004 NGrid=           0
         NMat0=    1 NMatS0=      1 NMatT0=    0 NMatD0=    1 NMtDS0=    0 NMtDT0=    0
 Symmetry not used in FoFCou.
 Requested convergence on RMS density matrix=1.00D-08 within 128 cycles.
 Requested convergence on MAX density matrix=1.00D-06.
 Requested convergence on             energy=1.00D-06.
 No special actions if energy rises.
 Integral accuracy reduced to 1.0D-05 until final iterations.
 Initial convergence to 1.0D-05 achieved.  Increase integral accuracy.
 SCF Done:  E(RwB97XD) =  -1280.31147535     A.U. after   15 cycles
            NFock= 15  Conv=0.48D-08     -V/T= 2.0037
 DoSCS=F DFT=T ScalE2(SS,OS)=  1.000000  1.000000
 Range of M.O.s used for correlation:     1   762
 NBasis=   762 NAE=    74 NBE=    74 NFC=     0 NFV=     0
 NROrb=    762 NOA=    74 NOB=    74 NVA=   688 NVB=   688

 **** Warning!!: The largest alpha MO coefficient is  0.25974800D+02

   1 Symmetry operations used in ECPInt.
 ECPInt:  NShTT=   41041 NPrTT=  113485 LenC2=   37111 LenP2D=   76001.
 LDataN:  DoStor=T MaxTD1= 7 Len=  274
 Number of processors reduced to   2 by ecpmxn.
 Symmetrizing basis deriv contribution to polar:
 IMax=3 JMax=2 DiffMx= 0.00D+00
 G2DrvN: will do    34 centers at a time, making    1 passes.
 Calling FoFCou, ICntrl=  3107 FMM=F I1Cent=   0 AccDes= 0.00D+00.
 End of G2Drv F.D. properties file   721 does not exist.
 End of G2Drv F.D. properties file   722 does not exist.
 End of G2Drv F.D. properties file   788 does not exist.
          IDoAtm=111111111111111111111111111111111
          Differentiating once with respect to nuclear coordinates.
 CalDSu exits because no D1Ps are significant.
          There are   102 degrees of freedom in the 1st order CPHF.  IDoFFX=6 NUNeed=     0.
     96 vectors produced by pass  0 Test12= 5.09D-14 1.00D-09 XBig12= 8.47D-02 3.75D-02.
 AX will form    48 AO Fock derivatives at one time.
     96 vectors produced by pass  1 Test12= 5.09D-14 1.00D-09 XBig12= 2.92D-02 1.53D-02.
     96 vectors produced by pass  2 Test12= 5.09D-14 1.00D-09 XBig12= 6.55D-04 3.02D-03.
     96 vectors produced by pass  3 Test12= 5.09D-14 1.00D-09 XBig12= 8.73D-06 3.52D-04.
     96 vectors produced by pass  4 Test12= 5.09D-14 1.00D-09 XBig12= 1.07D-07 3.45D-05.
     96 vectors produced by pass  5 Test12= 5.09D-14 1.00D-09 XBig12= 1.15D-09 2.94D-06.
     96 vectors produced by pass  6 Test12= 5.09D-14 1.00D-09 XBig12= 9.27D-12 2.73D-07.
     49 vectors produced by pass  7 Test12= 5.09D-14 1.00D-09 XBig12= 6.77D-14 1.77D-08.
      7 vectors produced by pass  8 Test12= 5.09D-14 1.00D-09 XBig12= 2.05D-15 2.34D-09.
      3 vectors produced by pass  9 Test12= 5.09D-14 1.00D-09 XBig12= 1.54D-15 1.85D-09.
 InvSVY:  IOpt=1 It=  1 EMax= 2.99D-16
 Solved reduced A of dimension   731 with   102 vectors.
 End of Minotr F.D. properties file   721 does not exist.
 End of Minotr F.D. properties file   722 does not exist.
 End of Minotr F.D. properties file   788 does not exist.

 **********************************************************************

            Population analysis using the SCF Density.

 **********************************************************************

 Alpha  occ. eigenvalues --  -66.01133 -19.03881 -19.01190 -18.99985 -18.97110
 Alpha  occ. eigenvalues --  -18.93574 -18.92910 -18.92773 -18.91541 -18.90517
 Alpha  occ. eigenvalues --  -18.87356 -10.09766 -10.08553 -10.07593 -10.07191
 Alpha  occ. eigenvalues --  -10.05252 -10.04689  -5.11858  -3.46571  -3.46354
 Alpha  occ. eigenvalues --   -3.46270  -0.90954  -0.89276  -0.88123  -0.85228
 Alpha  occ. eigenvalues --   -0.82527  -0.79503  -0.77619  -0.76916  -0.74968
 Alpha  occ. eigenvalues --   -0.74079  -0.60758  -0.58182  -0.52908  -0.48209
 Alpha  occ. eigenvalues --   -0.44752  -0.40039  -0.37875  -0.36168  -0.34755
 Alpha  occ. eigenvalues --   -0.34190  -0.32673  -0.31029  -0.30166  -0.28734
 Alpha  occ. eigenvalues --   -0.27951  -0.27677  -0.26693  -0.26203  -0.24865
 Alpha  occ. eigenvalues --   -0.24377  -0.22748  -0.22234  -0.21231  -0.20395
 Alpha  occ. eigenvalues --   -0.19205  -0.17918  -0.16633  -0.15733  -0.14658
 Alpha  occ. eigenvalues --   -0.14451  -0.13701  -0.13412  -0.12905  -0.11494
 Alpha  occ. eigenvalues --   -0.11243  -0.09361  -0.09246  -0.08983  -0.07355
 Alpha  occ. eigenvalues --   -0.06585  -0.05606  -0.01511  -0.01076
 Alpha virt. eigenvalues --    0.30715   0.34622   0.35465   0.36505   0.38051
 Alpha virt. eigenvalues --    0.39074   0.39525   0.40313   0.41601   0.41992
 Alpha virt. eigenvalues --    0.43048   0.43392   0.44283   0.45147   0.46862
 Alpha virt. eigenvalues --    0.47117   0.47731   0.48444   0.49826   0.50451
 Alpha virt. eigenvalues --    0.50952   0.52078   0.52763   0.53340   0.54270
 Alpha virt. eigenvalues --    0.55209   0.55399   0.56099   0.57799   0.58318
 Alpha virt. eigenvalues --    0.59408   0.60248   0.61035   0.62636   0.63081
 Alpha virt. eigenvalues --    0.63733   0.64138   0.64729   0.65308   0.65637
 Alpha virt. eigenvalues --    0.66499   0.66744   0.67403   0.68419   0.68536
 Alpha virt. eigenvalues --    0.68717   0.70091   0.70767   0.71273   0.71665
 Alpha virt. eigenvalues --    0.71687   0.72271   0.72387   0.73075   0.73199
 Alpha virt. eigenvalues --    0.74372   0.74737   0.75267   0.76031   0.76551
 Alpha virt. eigenvalues --    0.76624   0.77325   0.77603   0.78445   0.79753
 Alpha virt. eigenvalues --    0.80198   0.80558   0.81183   0.81659   0.81983
 Alpha virt. eigenvalues --    0.83171   0.83420   0.83638   0.84318   0.85177
 Alpha virt. eigenvalues --    0.85564   0.86465   0.86811   0.87551   0.88155
 Alpha virt. eigenvalues --    0.89076   0.89827   0.90026   0.91070   0.92757
 Alpha virt. eigenvalues --    0.93127   0.94065   0.94808   0.95192   0.96125
 Alpha virt. eigenvalues --    0.96385   0.97348   0.98122   0.99467   0.99870
 Alpha virt. eigenvalues --    1.00456   1.01569   1.02310   1.03226   1.03740
 Alpha virt. eigenvalues --    1.04750   1.05365   1.06300   1.07516   1.08412
 Alpha virt. eigenvalues --    1.09429   1.10061   1.11600   1.12197   1.12851
 Alpha virt. eigenvalues --    1.13581   1.13901   1.14309   1.15084   1.15312
 Alpha virt. eigenvalues --    1.17218   1.17884   1.19035   1.19251   1.19901
 Alpha virt. eigenvalues --    1.21610   1.23472   1.24217   1.24734   1.25104
 Alpha virt. eigenvalues --    1.25816   1.27726   1.28804   1.29614   1.29927
 Alpha virt. eigenvalues --    1.30169   1.30967   1.32063   1.32134   1.33277
 Alpha virt. eigenvalues --    1.34014   1.35074   1.35602   1.35742   1.36470
 Alpha virt. eigenvalues --    1.37427   1.37616   1.38008   1.39615   1.41011
 Alpha virt. eigenvalues --    1.41569   1.42641   1.43430   1.44216   1.44720
 Alpha virt. eigenvalues --    1.44986   1.46306   1.46858   1.47342   1.48330
 Alpha virt. eigenvalues --    1.49297   1.49336   1.50260   1.50686   1.51626
 Alpha virt. eigenvalues --    1.52892   1.53963   1.55043   1.55784   1.57096
 Alpha virt. eigenvalues --    1.57866   1.58706   1.59491   1.59940   1.61251
 Alpha virt. eigenvalues --    1.61920   1.62756   1.63365   1.64690   1.66253
 Alpha virt. eigenvalues --    1.67191   1.68608   1.69025   1.69496   1.70484
 Alpha virt. eigenvalues --    1.72871   1.73064   1.73505   1.74082   1.74892
 Alpha virt. eigenvalues --    1.75103   1.76482   1.77975   1.78220   1.79096
 Alpha virt. eigenvalues --    1.79760   1.81536   1.82300   1.83111   1.83512
 Alpha virt. eigenvalues --    1.83922   1.84775   1.85559   1.86895   1.87932
 Alpha virt. eigenvalues --    1.89138   1.89735   1.91452   1.92920   1.93420
 Alpha virt. eigenvalues --    1.94590   1.96775   1.98517   1.99362   2.01357
 Alpha virt. eigenvalues --    2.02017   2.04111   2.06869   2.08358   2.08710
 Alpha virt. eigenvalues --    2.12314   2.12521   2.14685   2.15946   2.17505
 Alpha virt. eigenvalues --    2.18352   2.18775   2.19604   2.19810   2.22236
 Alpha virt. eigenvalues --    2.22763   2.24659   2.24853   2.25259   2.26301
 Alpha virt. eigenvalues --    2.27319   2.29169   2.29655   2.30178   2.30906
 Alpha virt. eigenvalues --    2.31970   2.32544   2.34537   2.34641   2.35183
 Alpha virt. eigenvalues --    2.36162   2.36369   2.36977   2.39222   2.39718
 Alpha virt. eigenvalues --    2.40274   2.40593   2.42799   2.43288   2.44107
 Alpha virt. eigenvalues --    2.44815   2.45213   2.46207   2.46839   2.47849
 Alpha virt. eigenvalues --    2.49729   2.52087   2.52414   2.53068   2.53916
 Alpha virt. eigenvalues --    2.54458   2.55306   2.56954   2.58728   2.59134
 Alpha virt. eigenvalues --    2.60837   2.61290   2.62336   2.64556   2.66460
 Alpha virt. eigenvalues --    2.68776   2.69023   2.69896   2.72720   2.74069
 Alpha virt. eigenvalues --    2.77184   2.77579   2.78040   2.79006   2.80314
 Alpha virt. eigenvalues --    2.81430   2.82899   2.83732   2.86560   2.87230
 Alpha virt. eigenvalues --    2.90164   2.92904   2.93777   2.94888   2.95389
 Alpha virt. eigenvalues --    2.97530   2.98564   2.99191   2.99610   3.01170
 Alpha virt. eigenvalues --    3.02157   3.03279   3.04006   3.05025   3.06751
 Alpha virt. eigenvalues --    3.08330   3.08640   3.10190   3.11175   3.12780
 Alpha virt. eigenvalues --    3.12830   3.15570   3.16343   3.17190   3.17855
 Alpha virt. eigenvalues --    3.19417   3.20348   3.22070   3.22619   3.24041
 Alpha virt. eigenvalues --    3.25380   3.26756   3.27661   3.29670   3.30156
 Alpha virt. eigenvalues --    3.31068   3.32727   3.33290   3.33448   3.34305
 Alpha virt. eigenvalues --    3.35822   3.36805   3.38295   3.39353   3.40275
 Alpha virt. eigenvalues --    3.40516   3.41591   3.41991   3.42544   3.43848
 Alpha virt. eigenvalues --    3.44442   3.45676   3.46634   3.47796   3.48356
 Alpha virt. eigenvalues --    3.49020   3.49251   3.50742   3.51898   3.52866
 Alpha virt. eigenvalues --    3.53570   3.54282   3.55577   3.56696   3.57164
 Alpha virt. eigenvalues --    3.58711   3.59398   3.60488   3.61425   3.62561
 Alpha virt. eigenvalues --    3.63496   3.65586   3.67008   3.67597   3.68791
 Alpha virt. eigenvalues --    3.69165   3.69766   3.69834   3.70829   3.71398
 Alpha virt. eigenvalues --    3.72812   3.73600   3.74150   3.75817   3.75949
 Alpha virt. eigenvalues --    3.77295   3.78298   3.78732   3.79497   3.80261
 Alpha virt. eigenvalues --    3.81414   3.82199   3.82944   3.83725   3.84555
 Alpha virt. eigenvalues --    3.86048   3.87274   3.87870   3.88439   3.90005
 Alpha virt. eigenvalues --    3.90820   3.91354   3.92052   3.93594   3.94471
 Alpha virt. eigenvalues --    3.95105   3.96419   3.96811   3.97549   3.98939
 Alpha virt. eigenvalues --    4.00305   4.01367   4.02511   4.02810   4.03216
 Alpha virt. eigenvalues --    4.03424   4.04316   4.04481   4.07188   4.07826
 Alpha virt. eigenvalues --    4.08346   4.09956   4.10325   4.10490   4.12601
 Alpha virt. eigenvalues --    4.12736   4.14372   4.15025   4.15850   4.17695
 Alpha virt. eigenvalues --    4.18259   4.19998   4.21170   4.21857   4.23568
 Alpha virt. eigenvalues --    4.23715   4.24319   4.25139   4.26695   4.27949
 Alpha virt. eigenvalues --    4.28663   4.29517   4.30040   4.30432   4.31753
 Alpha virt. eigenvalues --    4.32858   4.34356   4.35539   4.36223   4.36602
 Alpha virt. eigenvalues --    4.37115   4.38841   4.39198   4.40357   4.41716
 Alpha virt. eigenvalues --    4.43467   4.43888   4.44530   4.45210   4.46155
 Alpha virt. eigenvalues --    4.46306   4.47736   4.48455   4.48803   4.49837
 Alpha virt. eigenvalues --    4.50906   4.51858   4.52199   4.52972   4.54265
 Alpha virt. eigenvalues --    4.55028   4.55899   4.56458   4.57212   4.58324
 Alpha virt. eigenvalues --    4.60273   4.61341   4.62166   4.62374   4.63162
 Alpha virt. eigenvalues --    4.64424   4.65322   4.66466   4.67258   4.68110
 Alpha virt. eigenvalues --    4.68566   4.69892   4.70983   4.72150   4.73975
 Alpha virt. eigenvalues --    4.74246   4.76353   4.76594   4.78145   4.80028
 Alpha virt. eigenvalues --    4.81544   4.81936   4.82580   4.84809   4.85637
 Alpha virt. eigenvalues --    4.86151   4.87582   4.91520   4.93861   4.93991
 Alpha virt. eigenvalues --    4.96774   4.97666   4.98417   4.99047   5.02164
 Alpha virt. eigenvalues --    5.03094   5.04869   5.07446   5.08311   5.09351
 Alpha virt. eigenvalues --    5.10141   5.11571   5.12607   5.13234   5.15181
 Alpha virt. eigenvalues --    5.16370   5.17489   5.19112   5.20129   5.23125
 Alpha virt. eigenvalues --    5.26389   5.27511   5.28765   5.29949   5.31019
 Alpha virt. eigenvalues --    5.32082   5.32583   5.33477   5.33853   5.34901
 Alpha virt. eigenvalues --    5.36855   5.38484   5.39789   5.41320   5.42144
 Alpha virt. eigenvalues --    5.43562   5.44000   5.45973   5.47765   5.49766
 Alpha virt. eigenvalues --    5.50462   5.51436   5.53349   5.55930   5.56766
 Alpha virt. eigenvalues --    5.59355   5.60638   5.62120   5.63289   5.65405
 Alpha virt. eigenvalues --    5.68944   5.69261   5.69669   5.70998   5.73428
 Alpha virt. eigenvalues --    5.74311   5.75465   5.77245   5.78221   5.79222
 Alpha virt. eigenvalues --    5.81573   5.82154   5.83314   5.84639   5.86502
 Alpha virt. eigenvalues --    5.88026   5.89396   5.89848   5.90549   5.90807
 Alpha virt. eigenvalues --    5.92906   5.94001   5.94134   5.96066   5.97321
 Alpha virt. eigenvalues --    5.97996   5.98742   6.00053   6.01179   6.02152
 Alpha virt. eigenvalues --    6.02694   6.04908   6.06407   6.06884   6.07699
 Alpha virt. eigenvalues --    6.10323   6.11603   6.14523   6.18464   6.22603
 Alpha virt. eigenvalues --    6.23620   6.31225   6.32375   6.37098   6.39992
 Alpha virt. eigenvalues --    6.42162   6.42196   6.46287   6.46396   6.48125
 Alpha virt. eigenvalues --    6.50526   6.53039   6.61890   6.66747   6.76427
 Alpha virt. eigenvalues --    6.81341   6.82731   6.83665   6.84718   6.88553
 Alpha virt. eigenvalues --    6.88819   6.90082   6.90346   6.92446   6.93906
 Alpha virt. eigenvalues --    6.94670   6.96424   6.97571   6.97821   7.00015
 Alpha virt. eigenvalues --    7.01377   7.01957   7.02424   7.03229   7.03495
 Alpha virt. eigenvalues --    7.04412   7.04909   7.05423   7.06090   7.06839
 Alpha virt. eigenvalues --    7.07886   7.08278   7.10077   7.11129   7.12232
 Alpha virt. eigenvalues --    7.12857   7.14233   7.15986   7.17487   7.17802
 Alpha virt. eigenvalues --    7.19479   7.21344   7.23363   7.24500   7.25321
 Alpha virt. eigenvalues --    7.27508   7.29536   7.30254   7.31485   7.33456
 Alpha virt. eigenvalues --    7.33765   7.36504   7.41202   7.42776   7.45359
 Alpha virt. eigenvalues --    7.47837   7.49235   7.51481   7.54496   7.54994
 Alpha virt. eigenvalues --    7.55789   7.59019   7.64108   7.66479   7.67513
 Alpha virt. eigenvalues --    7.69878   7.70075   7.75890   7.76661   7.77349
 Alpha virt. eigenvalues --    7.79206   7.83269   7.84502   7.86341   7.88321
 Alpha virt. eigenvalues --    7.94944   7.96536   7.99360   8.02576   8.08415
 Alpha virt. eigenvalues --    8.10781  12.21333  23.38766  23.46546  23.60557
 Alpha virt. eigenvalues --   23.62870  23.68956  23.71307  44.23024  44.25758
 Alpha virt. eigenvalues --   44.34900  44.41100  44.44618  44.52066  44.52297
 Alpha virt. eigenvalues --   44.56536  44.71778  44.91397
          Condensed to atoms (all electrons):
               1          2          3          4          5          6
     1  Si  11.554538   0.338312   0.309440   0.451406   0.226536   0.101366
     2  O    0.338312   8.109989  -0.001224  -0.038484  -0.040165  -0.062882
     3  O    0.309440  -0.001224   7.966586  -0.044466  -0.045987  -0.017572
     4  O    0.451406  -0.038484  -0.044466   7.931227  -0.064222  -0.000177
     5  O    0.226536  -0.040165  -0.045987  -0.064222   8.292291  -0.004089
     6  O    0.101366  -0.062882  -0.017572  -0.000177  -0.004089   8.442698
     7  O    0.397488  -0.093780  -0.093134  -0.055410   0.005365  -0.007354
     8  C   -0.042468   0.008582  -0.004664  -0.002879  -0.088245   0.427882
     9  H    0.007588  -0.000314  -0.000497   0.000006   0.006463  -0.032260
    10  C   -0.059223  -0.013057   0.008795  -0.002962   0.237286  -0.125760
    11  H   -0.048631   0.027644   0.006928   0.001882   0.000080   0.001239
    12  H   -0.056775   0.313138  -0.001610   0.001123   0.009077   0.058305
    13  H   -0.040330   0.001281   0.000483   0.315244   0.010415  -0.000296
    14  H   -0.034454   0.000181   0.314509   0.000807   0.004150   0.002630
    15  C   -0.011391  -0.001627   0.009246   0.000591   0.001974  -0.147549
    16  H    0.001356   0.000177   0.002941  -0.000270   0.024896   0.009107
    17  O    0.000381   0.000002   0.000023  -0.000000   0.000607   0.002197
    18  H   -0.000037  -0.000002  -0.000001   0.000000   0.000221  -0.000748
    19  C    0.004758   0.000092  -0.007654   0.000004  -0.001514   0.014252
    20  H   -0.000779   0.000141   0.000644   0.000003   0.000076   0.023549
    21  H    0.000436   0.000002  -0.000560  -0.000000  -0.000015   0.002618
    22  O    0.001085   0.000003  -0.039353  -0.000008   0.000221  -0.006792
    23  H   -0.004960  -0.000451   0.079119  -0.000108  -0.000595   0.002047
    24  C    0.003717   0.004056  -0.001490  -0.000784  -0.012094   0.020267
    25  H    0.001365  -0.000148  -0.000120   0.000061   0.006123   0.000963
    26  O    0.000901  -0.000161  -0.000025   0.000041  -0.036777  -0.000431
    27  H   -0.003080   0.000459   0.000227   0.000082   0.058142  -0.000145
    28  C   -0.000970   0.000456   0.000000  -0.000021   0.005503  -0.002236
    29  H    0.000121  -0.000262  -0.000002   0.000004   0.000077   0.000083
    30  H   -0.000053   0.000004   0.000000  -0.000001  -0.000284   0.000025
    31  O    0.000010  -0.000001   0.000000   0.000000  -0.000057   0.000079
    32  H   -0.000010  -0.000002  -0.000002  -0.000000  -0.000086   0.000001
    33  H    0.009634   0.028260  -0.000233   0.000248  -0.053241   0.005216
               7          8          9         10         11         12
     1  Si   0.397488  -0.042468   0.007588  -0.059223  -0.048631  -0.056775
     2  O   -0.093780   0.008582  -0.000314  -0.013057   0.027644   0.313138
     3  O   -0.093134  -0.004664  -0.000497   0.008795   0.006928  -0.001610
     4  O   -0.055410  -0.002879   0.000006  -0.002962   0.001882   0.001123
     5  O    0.005365  -0.088245   0.006463   0.237286   0.000080   0.009077
     6  O   -0.007354   0.427882  -0.032260  -0.125760   0.001239   0.058305
     7  O    8.100993  -0.002571  -0.000087  -0.001428   0.308018   0.005440
     8  C   -0.002571   5.335765   0.375230   0.101227  -0.000325   0.000384
     9  H   -0.000087   0.375230   0.867764  -0.060509   0.000009  -0.005135
    10  C   -0.001428   0.101227  -0.060509   5.508289  -0.000068  -0.013079
    11  H    0.308018  -0.000325   0.000009  -0.000068   0.576511   0.002812
    12  H    0.005440   0.000384  -0.005135  -0.013079   0.002812   0.494405
    13  H    0.003769   0.000294  -0.000007  -0.000627  -0.000589  -0.000556
    14  H    0.008932  -0.000598   0.000065  -0.000235  -0.000541  -0.000280
    15  C    0.000653  -0.112688  -0.158483   0.034584   0.000052   0.008626
    16  H    0.000025  -0.012774   0.018539  -0.055429  -0.000015  -0.000236
    17  O   -0.000000  -0.055801  -0.003211   0.018282  -0.000000  -0.000053
    18  H    0.000000   0.011042  -0.000998  -0.004173   0.000000   0.000017
    19  C   -0.000246  -0.004059   0.011895  -0.002995  -0.000011  -0.000913
    20  H    0.000057   0.012394   0.001123  -0.000671  -0.000005  -0.000049
    21  H   -0.000005   0.018056   0.000339  -0.000558  -0.000001  -0.000017
    22  O   -0.000120   0.016585  -0.000502  -0.006637   0.000008   0.000099
    23  H    0.000145   0.000055  -0.000095   0.002214  -0.000061  -0.000227
    24  C    0.000125  -0.049000   0.001952  -0.015541  -0.000011   0.000388
    25  H   -0.000005  -0.023407   0.000267  -0.055119   0.000001  -0.000135
    26  O   -0.000000   0.013395  -0.000329  -0.019552  -0.000000  -0.000096
    27  H   -0.000016   0.005267  -0.000086  -0.028498  -0.000003  -0.000215
    28  C   -0.000003   0.014802   0.004260   0.016087  -0.000001  -0.000414
    29  H   -0.000000  -0.001876  -0.003202  -0.000675   0.000001  -0.000031
    30  H    0.000000   0.000749   0.000838   0.007708  -0.000000   0.000002
    31  O    0.000000   0.003050   0.004076  -0.001599   0.000000   0.000013
    32  H   -0.000000  -0.001435   0.005744   0.004586  -0.000000  -0.000016
    33  H    0.000493  -0.075800  -0.007333   0.322108  -0.000271   0.002659
              13         14         15         16         17         18
     1  Si  -0.040330  -0.034454  -0.011391   0.001356   0.000381  -0.000037
     2  O    0.001281   0.000181  -0.001627   0.000177   0.000002  -0.000002
     3  O    0.000483   0.314509   0.009246   0.002941   0.000023  -0.000001
     4  O    0.315244   0.000807   0.000591  -0.000270  -0.000000   0.000000
     5  O    0.010415   0.004150   0.001974   0.024896   0.000607   0.000221
     6  O   -0.000296   0.002630  -0.147549   0.009107   0.002197  -0.000748
     7  O    0.003769   0.008932   0.000653   0.000025  -0.000000   0.000000
     8  C    0.000294  -0.000598  -0.112688  -0.012774  -0.055801   0.011042
     9  H   -0.000007   0.000065  -0.158483   0.018539  -0.003211  -0.000998
    10  C   -0.000627  -0.000235   0.034584  -0.055429   0.018282  -0.004173
    11  H   -0.000589  -0.000541   0.000052  -0.000015  -0.000000   0.000000
    12  H   -0.000556  -0.000280   0.008626  -0.000236  -0.000053   0.000017
    13  H    0.581579  -0.000261   0.000004  -0.000076  -0.000000  -0.000001
    14  H   -0.000261   0.574762  -0.000431  -0.000146  -0.000007   0.000002
    15  C    0.000004  -0.000431   5.883440   0.344417   0.149568  -0.053668
    16  H   -0.000076  -0.000146   0.344417   0.659628  -0.054049  -0.009036
    17  O   -0.000000  -0.000007   0.149568  -0.054049   7.975243   0.314201
    18  H   -0.000001   0.000002  -0.053668  -0.009036   0.314201   0.594226
    19  C    0.000015   0.000705   0.185616  -0.020910  -0.018477   0.000419
    20  H    0.000000  -0.000292  -0.125979   0.014782   0.007175  -0.001070
    21  H    0.000001   0.000027  -0.017843  -0.007396   0.008310   0.003156
    22  O   -0.000002   0.001270  -0.106838   0.020190   0.004612   0.000478
    23  H   -0.000033  -0.002930   0.007223  -0.000068  -0.000419  -0.000176
    24  C   -0.000834   0.000053   0.029434   0.015338  -0.019676   0.000596
    25  H   -0.000030   0.000028  -0.002865  -0.009404   0.019407   0.003983
    26  O   -0.000273   0.000002  -0.002630  -0.000598   0.000278  -0.000043
    27  H    0.003637  -0.000036  -0.001542   0.000347   0.000057  -0.000015
    28  C    0.000060  -0.000003  -0.012673   0.001243   0.001561  -0.000208
    29  H   -0.000005   0.000000  -0.000231   0.000061  -0.000106   0.000195
    30  H   -0.000003   0.000000   0.000056  -0.000003  -0.000150  -0.000010
    31  O   -0.000000   0.000000  -0.002519  -0.000009  -0.027720   0.003184
    32  H    0.000000   0.000000  -0.004906   0.000531   0.052890  -0.006812
    33  H   -0.000345   0.000049   0.014196   0.000974  -0.000136   0.000267
              19         20         21         22         23         24
     1  Si   0.004758  -0.000779   0.000436   0.001085  -0.004960   0.003717
     2  O    0.000092   0.000141   0.000002   0.000003  -0.000451   0.004056
     3  O   -0.007654   0.000644  -0.000560  -0.039353   0.079119  -0.001490
     4  O    0.000004   0.000003  -0.000000  -0.000008  -0.000108  -0.000784
     5  O   -0.001514   0.000076  -0.000015   0.000221  -0.000595  -0.012094
     6  O    0.014252   0.023549   0.002618  -0.006792   0.002047   0.020267
     7  O   -0.000246   0.000057  -0.000005  -0.000120   0.000145   0.000125
     8  C   -0.004059   0.012394   0.018056   0.016585   0.000055  -0.049000
     9  H    0.011895   0.001123   0.000339  -0.000502  -0.000095   0.001952
    10  C   -0.002995  -0.000671  -0.000558  -0.006637   0.002214  -0.015541
    11  H   -0.000011  -0.000005  -0.000001   0.000008  -0.000061  -0.000011
    12  H   -0.000913  -0.000049  -0.000017   0.000099  -0.000227   0.000388
    13  H    0.000015   0.000000   0.000001  -0.000002  -0.000033  -0.000834
    14  H    0.000705  -0.000292   0.000027   0.001270  -0.002930   0.000053
    15  C    0.185616  -0.125979  -0.017843  -0.106838   0.007223   0.029434
    16  H   -0.020910   0.014782  -0.007396   0.020190  -0.000068   0.015338
    17  O   -0.018477   0.007175   0.008310   0.004612  -0.000419  -0.019676
    18  H    0.000419  -0.001070   0.003156   0.000478  -0.000176   0.000596
    19  C    4.689715   0.454684   0.302142   0.337734  -0.052820   0.001874
    20  H    0.454684   0.703623  -0.071603  -0.045231  -0.000224  -0.000205
    21  H    0.302142  -0.071603   0.824260  -0.047110   0.007967   0.000040
    22  O    0.337734  -0.045231  -0.047110   8.007280   0.344905   0.000926
    23  H   -0.052820  -0.000224   0.007967   0.344905   0.378670  -0.000466
    24  C    0.001874  -0.000205   0.000040   0.000926  -0.000466   5.266355
    25  H   -0.000658  -0.000334  -0.000068  -0.000427  -0.000020   0.381420
    26  O   -0.000026   0.000005  -0.000000  -0.000000   0.000004   0.234507
    27  H    0.000062   0.000003  -0.000002   0.000001  -0.000022  -0.060255
    28  C    0.000245   0.000061  -0.000003  -0.000024  -0.000008   0.198662
    29  H   -0.000084  -0.000011   0.000000   0.000000  -0.000001  -0.064383
    30  H    0.000015  -0.000002  -0.000000  -0.000000   0.000000  -0.006197
    31  O   -0.000094   0.000014   0.000000   0.000001   0.000000  -0.056623
    32  H    0.000153  -0.000158   0.000164  -0.000045   0.000015  -0.004457
    33  H   -0.001122  -0.000411   0.000060   0.000024  -0.000010  -0.003663
              25         26         27         28         29         30
     1  Si   0.001365   0.000901  -0.003080  -0.000970   0.000121  -0.000053
     2  O   -0.000148  -0.000161   0.000459   0.000456  -0.000262   0.000004
     3  O   -0.000120  -0.000025   0.000227   0.000000  -0.000002   0.000000
     4  O    0.000061   0.000041   0.000082  -0.000021   0.000004  -0.000001
     5  O    0.006123  -0.036777   0.058142   0.005503   0.000077  -0.000284
     6  O    0.000963  -0.000431  -0.000145  -0.002236   0.000083   0.000025
     7  O   -0.000005  -0.000000  -0.000016  -0.000003  -0.000000   0.000000
     8  C   -0.023407   0.013395   0.005267   0.014802  -0.001876   0.000749
     9  H    0.000267  -0.000329  -0.000086   0.004260  -0.003202   0.000838
    10  C   -0.055119  -0.019552  -0.028498   0.016087  -0.000675   0.007708
    11  H    0.000001  -0.000000  -0.000003  -0.000001   0.000001  -0.000000
    12  H   -0.000135  -0.000096  -0.000215  -0.000414  -0.000031   0.000002
    13  H   -0.000030  -0.000273   0.003637   0.000060  -0.000005  -0.000003
    14  H    0.000028   0.000002  -0.000036  -0.000003   0.000000   0.000000
    15  C   -0.002865  -0.002630  -0.001542  -0.012673  -0.000231   0.000056
    16  H   -0.009404  -0.000598   0.000347   0.001243   0.000061  -0.000003
    17  O    0.019407   0.000278   0.000057   0.001561  -0.000106  -0.000150
    18  H    0.003983  -0.000043  -0.000015  -0.000208   0.000195  -0.000010
    19  C   -0.000658  -0.000026   0.000062   0.000245  -0.000084   0.000015
    20  H   -0.000334   0.000005   0.000003   0.000061  -0.000011  -0.000002
    21  H   -0.000068  -0.000000  -0.000002  -0.000003   0.000000  -0.000000
    22  O   -0.000427  -0.000000   0.000001  -0.000024   0.000000  -0.000000
    23  H   -0.000020   0.000004  -0.000022  -0.000008  -0.000001   0.000000
    24  C    0.381420   0.234507  -0.060255   0.198662  -0.064383  -0.006197
    25  H    0.762580  -0.036766   0.001074  -0.083582   0.018601  -0.009771
    26  O   -0.036766   7.982299   0.342486  -0.051580   0.008098   0.004176
    27  H    0.001074   0.342486   0.458548   0.013207  -0.000757  -0.000994
    28  C   -0.083582  -0.051580   0.013207   4.869643   0.386251   0.367043
    29  H    0.018601   0.008098  -0.000757   0.386251   0.725791  -0.059801
    30  H   -0.009771   0.004176  -0.000994   0.367043  -0.059801   0.695769
    31  O    0.012863   0.004004  -0.000534   0.276053  -0.047031  -0.038463
    32  H    0.003248  -0.000245  -0.000005  -0.050112   0.000393   0.006988
    33  H    0.013159   0.004423   0.003436  -0.020300   0.015443  -0.000926
              31         32         33
     1  Si   0.000010  -0.000010   0.009634
     2  O   -0.000001  -0.000002   0.028260
     3  O    0.000000  -0.000002  -0.000233
     4  O    0.000000  -0.000000   0.000248
     5  O   -0.000057  -0.000086  -0.053241
     6  O    0.000079   0.000001   0.005216
     7  O    0.000000  -0.000000   0.000493
     8  C    0.003050  -0.001435  -0.075800
     9  H    0.004076   0.005744  -0.007333
    10  C   -0.001599   0.004586   0.322108
    11  H    0.000000  -0.000000  -0.000271
    12  H    0.000013  -0.000016   0.002659
    13  H   -0.000000   0.000000  -0.000345
    14  H    0.000000   0.000000   0.000049
    15  C   -0.002519  -0.004906   0.014196
    16  H   -0.000009   0.000531   0.000974
    17  O   -0.027720   0.052890  -0.000136
    18  H    0.003184  -0.006812   0.000267
    19  C   -0.000094   0.000153  -0.001122
    20  H    0.000014  -0.000158  -0.000411
    21  H    0.000000   0.000164   0.000060
    22  O    0.000001  -0.000045   0.000024
    23  H    0.000000   0.000015  -0.000010
    24  C   -0.056623  -0.004457  -0.003663
    25  H    0.012863   0.003248   0.013159
    26  O    0.004004  -0.000245   0.004423
    27  H   -0.000534  -0.000005   0.003436
    28  C    0.276053  -0.050112  -0.020300
    29  H   -0.047031   0.000393   0.015443
    30  H   -0.038463   0.006988  -0.000926
    31  O    7.967321   0.362443   0.000695
    32  H    0.362443   0.409444  -0.000482
    33  H    0.000695  -0.000482   0.749573
 Mulliken charges:
               1
     1  Si   0.892723
     2  O   -0.580220
     3  O   -0.440347
     4  O   -0.492938
     5  O   -0.542131
     6  O   -0.706233
     7  O   -0.577344
     8  C    0.133831
     9  H   -0.033111
    10  C    0.207229
    11  H    0.125348
    12  H    0.183347
    13  H    0.127488
    14  H    0.132042
    15  C    0.094182
    16  H    0.055866
    17  O   -0.374990
    18  H    0.145010
    19  C    0.107202
    20  H    0.028688
    21  H   -0.022396
    22  O   -0.482332
    23  H    0.241329
    24  C    0.135967
    25  H   -0.002284
    26  O   -0.445088
    27  H    0.209168
    28  C    0.067000
    29  H    0.023338
    30  H    0.033284
    31  O   -0.459157
    32  H    0.222175
    33  H   -0.006644
 Sum of Mulliken charges =  -2.00000
 Mulliken charges with hydrogens summed into heavy atoms:
               1
     1  Si   0.892723
     2  O   -0.396873
     3  O   -0.308305
     4  O   -0.365450
     5  O   -0.542131
     6  O   -0.706233
     7  O   -0.451996
     8  C    0.100720
    10  C    0.200585
    15  C    0.150048
    17  O   -0.229980
    19  C    0.113494
    22  O   -0.241004
    24  C    0.133683
    26  O   -0.235920
    28  C    0.123622
    31  O   -0.236982
 APT charges:
               1
     1  Si  -0.141278
     2  O   -0.372908
     3  O   -0.787492
     4  O   -0.240652
     5  O   -0.467671
     6  O   -0.549233
     7  O   -0.573297
     8  C   -0.473934
     9  H    0.249991
    10  C   -0.074446
    11  H    0.414897
    12  H    0.156092
    13  H    0.218066
    14  H    0.610332
    15  C    0.272449
    16  H    0.075274
    17  O   -0.805346
    18  H    0.573884
    19  C   -0.787351
    20  H    0.265368
    21  H    0.500327
    22  O   -0.118456
    23  H   -0.016183
    24  C   -0.128614
    25  H    0.117574
    26  O   -0.193418
    27  H    0.090117
    28  C   -0.725757
    29  H    0.217949
    30  H    0.610714
    31  O   -0.055740
    32  H   -0.073830
    33  H    0.212574
 Sum of APT charges =  -2.00000
 APT charges with hydrogens summed into heavy atoms:
               1
     1  Si  -0.141278
     2  O   -0.216815
     3  O   -0.177160
     4  O   -0.022586
     5  O   -0.467671
     6  O   -0.549233
     7  O   -0.158401
     8  C   -0.223943
    10  C    0.138127
    15  C    0.347723
    17  O   -0.231462
    19  C   -0.021656
    22  O   -0.134640
    24  C   -0.011041
    26  O   -0.103301
    28  C    0.102906
    31  O   -0.129571
 Electronic spatial extent (au):  <R**2>=           4496.4911
 Charge=             -2.0000 electrons
 Dipole moment (field-independent basis, Debye):
    X=              6.4566    Y=              0.9776    Z=             -1.6840  Tot=              6.7438
 Quadrupole moment (field-independent basis, Debye-Ang):
   XX=           -181.6517   YY=           -150.7425   ZZ=           -127.2960
   XY=              2.7243   XZ=             -4.6609   YZ=             -2.0914
 Traceless Quadrupole moment (field-independent basis, Debye-Ang):
   XX=            -28.4217   YY=              2.4876   ZZ=             25.9341
   XY=              2.7243   XZ=             -4.6609   YZ=             -2.0914
 Octapole moment (field-independent basis, Debye-Ang**2):
  XXX=            -17.1985  YYY=            -28.5873  ZZZ=            -10.1949  XYY=             12.5339
  XXY=             53.6313  XXZ=            -15.6675  XZZ=              7.6010  YZZ=              1.7141
  YYZ=              7.3946  XYZ=            -16.4964
 Hexadecapole moment (field-independent basis, Debye-Ang**3):
 XXXX=          -4170.9691 YYYY=          -2256.8501 ZZZZ=           -616.9594 XXXY=              2.3723
 XXXZ=           -132.1799 YYYX=             76.0307 YYYZ=             36.5114 ZZZX=            -14.7711
 ZZZY=              0.9840 XXYY=           -962.8726 XXZZ=           -653.5001 YYZZ=           -463.6070
 XXYZ=            -60.3630 YYXZ=              7.7287 ZZXY=             17.9226
 N-N= 1.688667472545D+03 E-N=-6.444078383151D+03  KE= 1.275630843895D+03
  Exact polarizability:       0.000       0.000       0.000       0.000       0.000       0.000
 Approx polarizability:     162.266       1.265     153.849       0.596      -1.226     148.139
   1 Symmetry operations used in ECPInt.
 ECPInt:  NShTT=   41041 NPrTT=  113485 LenC2=   37111 LenP2D=   76001.
 LDataN:  DoStor=T MaxTD1= 8 Len=  415
 Calling FoFJK, ICntrl=    100127 FMM=F ISym2X=0 I1Cent= 0 IOpClX= 0 NMat=1 NMatS=1 NMatT=0.
 -------------------------------------------------------------------
 Center     Atomic                   Forces (Hartrees/Bohr)
 Number     Number              X              Y              Z
 -------------------------------------------------------------------
      1       14          -0.000007716   -0.000002309    0.000008156
      2        8          -0.000001562   -0.000002373   -0.000000001
      3        8           0.000007464    0.000002906    0.000000787
      4        8           0.000002216    0.000000462   -0.000000712
      5        8          -0.000000845    0.000011661   -0.000008813
      6        8           0.000002178    0.000002178    0.000003179
      7        8          -0.000000174   -0.000007033   -0.000000167
      8        6           0.000001843   -0.000001993    0.000007382
      9        1           0.000000999   -0.000000655   -0.000000835
     10        6           0.000005378   -0.000006609   -0.000008573
     11        1           0.000003364    0.000000871    0.000003626
     12        1          -0.000004726   -0.000002183   -0.000001087
     13        1           0.000000891    0.000001408   -0.000002934
     14        1           0.000002008    0.000002715    0.000003558
     15        6          -0.000003149   -0.000002164   -0.000000216
     16        1          -0.000000163    0.000001415    0.000000435
     17        8           0.000000250   -0.000000327    0.000003003
     18        1          -0.000001139    0.000003303    0.000002173
     19        6           0.000000257   -0.000001109    0.000003852
     20        1           0.000000488   -0.000000615    0.000003680
     21        1          -0.000001309    0.000000887    0.000002798
     22        8          -0.000006660   -0.000004671    0.000004037
     23        1          -0.000003222    0.000001753    0.000003307
     24        6           0.000001513    0.000000245    0.000004214
     25        1           0.000000301    0.000001036   -0.000002297
     26        8           0.000001849    0.000001694   -0.000004976
     27        1          -0.000001067    0.000000895   -0.000003486
     28        6          -0.000000812   -0.000000580   -0.000004272
     29        1           0.000001935   -0.000001175   -0.000003746
     30        1          -0.000000563    0.000001093   -0.000005124
     31        8          -0.000001055    0.000004419    0.000000831
     32        1           0.000001104   -0.000004961   -0.000005123
     33        1           0.000000123   -0.000000185   -0.000002657
 -------------------------------------------------------------------
 Cartesian Forces:  Max     0.000011661 RMS     0.000003483
 IRC-IRC-IRC-IRC-IRC-IRC-IRC-IRC-IRC-IRC-IRC-IRC-IRC-IRC-IRC-IRC-IRC-IRC
          ******** Start new reaction path calculation ********
 Supplied step size of   0.1000 bohr.
    Integration on MW PES will use step size of   0.3143 sqrt(amu)*bohr.
 Point Number:   0          Path Number:   1
 Calculating another point on the path.
 IRC-IRC-IRC-IRC-IRC-IRC-IRC-IRC-IRC-IRC-IRC-IRC-IRC-IRC-IRC-IRC-IRC-IRC
                          Input orientation:                          
 ---------------------------------------------------------------------
 Center     Atomic      Atomic             Coordinates (Angstroms)
 Number     Number       Type             X           Y           Z
 ---------------------------------------------------------------------
      1         14           0       -2.044429   -0.547042    0.011023
      2          8           0       -1.825730   -1.311443    1.547127
      3          8           0       -1.985467    0.804055   -1.103983
      4          8           0       -2.735787   -1.801517   -0.922443
      5          8           0       -0.374821   -0.966704   -0.543210
      6          8           0       -0.438436    0.896137    1.424374
      7          8           0       -3.556858    0.156864    0.575673
      8          6           0        0.764294    0.614632    0.880920
      9          1           0        1.602420    0.637231    1.625856
     10          6           0        0.727485   -0.823551    0.290951
     11          1           0       -3.698498   -0.253941    1.424950
     12          1           0       -1.265040   -0.648171    1.983214
     13          1           0       -2.003867   -2.281417   -1.302438
     14          1           0       -2.847219    1.205539   -0.989479
     15          6           0        1.185607    1.646645   -0.204590
     16          1           0        0.905790    1.268215   -1.193277
     17          8           0        2.632119    1.790607   -0.148185
     18          1           0        2.921623    2.098930   -1.004732
     19          6           0        0.515688    3.008270   -0.034086
     20          1           0        0.295335    3.158742    1.029062
     21          1           0        1.224431    3.782532   -0.362981
     22          8           0       -0.639522    3.142259   -0.818150
     23          1           0       -1.115793    2.278879   -0.798369
     24          6           0        1.946237   -1.330354   -0.500408
     25          1           0        2.218097   -0.608163   -1.283793
     26          8           0        1.568688   -2.555333   -1.117989
     27          1           0        0.610307   -2.423575   -1.210100
     28          6           0        3.190167   -1.599793    0.345145
     29          1           0        2.877276   -1.949801    1.338636
     30          1           0        3.742493   -2.414492   -0.132517
     31          8           0        4.074630   -0.503153    0.462159
     32          1           0        3.554790    0.312244    0.380042
     33          1           0        0.627679   -1.499344    1.157897
 ---------------------------------------------------------------------
                    Distance matrix (angstroms):
                    1          2          3          4          5
     1  Si   0.000000
     2  O    1.729668   0.000000
     3  O    1.752762   3.395472   0.000000
     4  O    1.709692   2.677153   2.717525   0.000000
     5  O    1.808558   2.567779   2.458502   2.532764   0.000000
     6  O    2.580608   2.610185   2.965531   4.250025   2.710279
     7  O    1.761180   2.469099   2.389428   2.598801   3.555230
     8  C    3.161507   3.295728   3.396602   4.619574   2.413784
     9  H    4.160492   3.944077   4.511406   5.591186   3.344688
    10  C    2.799700   2.887027   3.457608   3.797762   1.389746
    11  H    2.195687   2.154182   3.232543   2.971878   3.927915
    12  H    2.123019   0.971841   3.486941   3.454873   2.697550
    13  H    2.175979   3.015394   3.091902   0.954153   2.226812
    14  H    2.171869   3.716585   0.957558   3.009867   3.321227
    15  C    3.910484   4.570224   3.402143   5.270908   3.062546
    16  H    3.667326   4.650338   2.929639   4.770501   2.656579
    17  O    5.230683   5.689395   4.817566   6.505171   4.098841
    18  H    5.717919   6.378087   5.076031   6.872157   4.525224
    19  C    4.381378   5.161627   3.501289   5.873272   4.105195
    20  H    4.499303   4.974923   3.911072   6.131903   4.465473
    21  H    5.437880   6.237033   4.441155   6.868620   5.014512
    22  O    4.033885   5.180452   2.713018   5.370859   4.126649
    23  H    3.082743   4.346927   1.739207   4.391971   3.338855
    24  C    4.098848   4.291910   4.514233   4.724559   2.349762
    25  H    4.455267   4.986105   4.438090   5.108388   2.720337
    26  O    4.285150   4.491344   4.890572   4.374355   2.575138
    27  H    3.472772   3.843620   4.143296   3.415560   1.880876
    28  C    5.349851   5.165958   5.887753   6.063365   3.728151
    29  H    5.287104   4.750709   6.098883   6.053176   3.883807
    30  H    6.082469   5.919715   6.641710   6.554985   4.383723
    31  O    6.135824   6.053490   6.394246   7.069983   4.585113
    32  H    5.676777   5.740073   5.756618   6.762826   4.234376
    33  H    3.059797   2.491189   4.153346   3.966362   2.045111
                    6          7          8          9         10
     6  O    0.000000
     7  O    3.315324   0.000000
     8  C    1.349498   4.356039   0.000000
     9  H    2.067056   5.286945   1.121560   0.000000
    10  C    2.366717   4.404301   1.554925   2.163647   0.000000
    11  H    3.456977   0.953988   4.578963   5.379060   4.604317
    12  H    1.838605   2.807433   2.632094   3.162640   2.620052
    13  H    4.470227   3.447360   4.562551   5.486230   3.482031
    14  H    3.424128   2.013208   4.109816   5.192518   4.305255
    15  C    2.419567   5.031822   1.555920   2.131474   2.560724
    16  H    2.966055   4.927424   2.179332   2.971691   2.571033
    17  O    3.563892   6.441779   2.435312   2.353248   3.264092
    18  H    4.317090   6.945503   3.226902   3.285857   3.877362
    19  C    2.738350   5.008787   2.574595   3.091637   3.851410
    20  H    2.411238   4.904714   2.591209   2.902181   4.073109
    21  H    3.780350   6.073489   3.434328   3.740491   4.678738
    22  O    3.180316   4.400702   3.353570   4.156277   4.338947
    23  H    2.703955   3.514219   3.020671   3.995067   3.769531
    24  C    3.787969   5.801191   2.662335   2.917293   1.538978
    25  H    4.080963   6.114980   2.880062   3.224302   2.179022
    26  O    4.733371   6.041168   3.832931   4.209785   2.385749
    27  H    4.365869   5.216600   3.691447   4.288995   2.197035
    28  C    4.534441   6.975767   3.328001   3.027447   2.582690
    29  H    4.370430   6.813092   3.354179   2.898359   2.643423
    30  H    5.555568   7.771352   4.367186   4.121262   3.435213
    31  O    4.821995   7.660817   3.518968   2.960826   3.366801
    32  H    4.168622   7.116034   2.851173   2.338679   3.048216
    33  H    2.635516   4.537880   2.136416   2.394590   1.103745
                   11         12         13         14         15
    11  H    0.000000
    12  H    2.527607   0.000000
    13  H    3.797510   3.742842   0.000000
    14  H    2.946901   3.844013   3.601118   0.000000
    15  C    5.488362   4.007286   5.177614   4.132108   0.000000
    16  H    5.511038   4.298271   4.591068   3.759061   1.094993
    17  O    6.836055   5.067381   6.277424   5.574337   1.454752
    18  H    7.434068   5.831170   6.598221   5.837630   1.964317
    19  C    5.525411   4.539830   5.994803   3.933416   1.527052
    20  H    5.268191   4.223478   6.349610   4.214873   2.144975
    21  H    6.612492   5.597610   6.933684   4.859190   2.142104
    22  O    5.091464   4.754606   5.613576   2.941796   2.438117
    23  H    4.246021   4.040681   4.673228   2.046074   2.459418
    24  C    6.060421   4.116558   4.141388   5.444921   3.086841
    25  H    6.516814   4.775687   4.541487   5.388280   2.704602
    26  O    6.285395   4.613539   3.587785   5.801802   4.317136
    27  H    5.496963   4.106853   2.619664   5.017333   4.231869
    28  C    7.101479   4.841252   5.491550   6.789782   3.854844
    29  H    6.791480   4.389591   5.559748   6.938742   4.263532
    30  H    7.903292   5.715907   5.865754   7.567253   4.799551
    31  O    7.836492   5.553983   6.574508   7.275911   3.662327
    32  H    7.350006   5.169461   6.360541   6.607517   2.781267
    33  H    4.509785   2.233390   3.686451   4.899238   3.473457
                   16         17         18         19         20
    16  H    0.000000
    17  O    2.084545   0.000000
    18  H    2.188429   0.955274   0.000000
    19  C    2.126898   2.444382   2.749105   0.000000
    20  H    2.980862   2.952671   3.486676   1.096120   0.000000
    21  H    2.666968   2.448569   2.475242   1.099987   1.786090
    22  O    2.457794   3.602701   3.715522   1.402576   2.070367
    23  H    2.294382   3.835100   4.046690   1.943674   2.470818
    24  C    2.883602   3.214792   3.600793   4.592122   5.021627
    25  H    2.291536   2.686097   2.810904   4.187906   4.820362
    26  O    3.881316   4.578056   4.848239   5.765182   6.235535
    27  H    3.703634   4.793195   5.083051   5.558498   6.022899
    28  C    3.976253   3.471253   3.946496   5.341432   5.611724
    29  H    4.544554   4.032541   4.678200   5.660735   5.732317
    30  H    4.768063   4.349256   4.669643   6.310967   6.655306
    31  O    3.989958   2.777534   3.201879   5.024184   5.292819
    32  H    3.225898   1.820962   2.347498   4.083650   4.375823
    33  H    3.642081   4.067850   4.784007   4.663898   4.671704
                   21         22         23         24         25
    21  H    0.000000
    22  O    2.022733   0.000000
    23  H    2.815526   0.986230   0.000000
    24  C    5.165413   5.176039   4.742507   0.000000
    25  H    4.594940   4.737982   4.436831   1.099618   0.000000
    26  O    6.391954   6.117895   5.538790   1.422857   2.059294
    27  H    6.293690   5.717885   5.026134   1.866415   2.426137
    28  C    5.773646   6.205387   5.907030   1.528044   2.140488
    29  H    6.203792   6.553523   6.196218   2.152354   3.018550
    30  H    6.693046   7.109826   6.787785   2.130078   2.629077
    31  O    5.212638   6.095199   6.022386   2.478075   2.550705
    32  H    4.245651   5.199702   5.202946   2.461861   2.324273
    33  H    5.528780   5.201446   4.598004   2.125354   3.047209
                   26         27         28         29         30
    26  O    0.000000
    27  H    0.971771   0.000000
    28  C    2.383906   3.122992   0.000000
    29  H    2.848522   3.443787   1.098831   0.000000
    30  H    2.390903   3.312379   1.094056   1.768849   0.000000
    31  O    3.603894   4.299536   1.413714   2.072356   2.029081
    32  H    3.796273   4.322411   1.946806   2.548484   2.780834
    33  H    2.679602   2.542030   2.690167   2.301361   3.493526
                   31         32         33
    31  O    0.000000
    32  H    0.970490   0.000000
    33  H    3.654849   3.529148   0.000000
 Symmetry turned off by external request.
 Stoichiometry    C6H16O10Si(2-)
 Framework group  C1[X(C6H16O10Si)]
 Deg. of freedom    93
 Full point group                 C1      NOp   1
 Rotational constants (GHZ):           0.5632799           0.3477867           0.2553795
 Standard basis: def2TZVPP (5D, 7F)
   762 basis functions,  1157 primitive gaussians,   864 cartesian basis functions
    74 alpha electrons       74 beta electrons
       nuclear repulsion energy      1687.7553636610 Hartrees.
 NAtoms=   33 NActive=   33 NUniq=   33 SFac= 1.00D+00 NAtFMM=   60 NAOKFM=F Big=F
 Integral buffers will be    131072 words long.
 Raffenetti 2 integral format.
 Two-electron integral symmetry is turned off.
 Nuclear repulsion after empirical dispersion term =     1687.7274010186 Hartrees.
 One-electron integrals computed using PRISM.
   1 Symmetry operations used in ECPInt.
 ECPInt:  NShTT=   41041 NPrTT=  113485 LenC2=   37106 LenP2D=   75973.
 LDataN:  DoStor=T MaxTD1= 6 Len=  172
 NBasis=   762 RedAO= T EigKep=  4.37D-05  NBF=   762
 NBsUse=   762 1.00D-06 EigRej= -1.00D+00 NBFU=   762
 Initial guess from the checkpoint file:  "PmonoL_HbiL_mannitol_IRC_reverse.chk"
 B after Tr=     0.061549    0.017009    0.004231
         Rot=    1.000000    0.000005   -0.000015    0.000018 Ang=   0.00 deg.
 ExpMin= 7.01D-02 ExpMax= 4.48D+04 ExpMxC= 1.53D+03 IAcc=3 IRadAn=         5 AccDes= 0.00D+00
 Harris functional with IExCor= 4639 and IRadAn=       5 diagonalized for initial guess.
 HarFok:  IExCor= 4639 AccDes= 0.00D+00 IRadAn=         5 IDoV= 1 UseB2=F ITyADJ=14
 ICtDFT=  3500011 ScaDFX=  1.000000  1.000000  1.000000  1.000000
 FoFCou: FMM=F IPFlag=           0 FMFlag=      100000 FMFlg1=           0
         NFxFlg=           0 DoJE=T BraDBF=F KetDBF=T FulRan=T
         wScrn=  0.000000 ICntrl=       500 IOpCl=  0 I1Cent=   200000004 NGrid=           0
         NMat0=    1 NMatS0=      1 NMatT0=    0 NMatD0=    1 NMtDS0=    0 NMtDT0=    0
 Symmetry not used in FoFCou.
 Requested convergence on RMS density matrix=1.00D-08 within 128 cycles.
 Requested convergence on MAX density matrix=1.00D-06.
 Requested convergence on             energy=1.00D-06.
 No special actions if energy rises.
 Integral accuracy reduced to 1.0D-05 until final iterations.
 Initial convergence to 1.0D-05 achieved.  Increase integral accuracy.
 SCF Done:  E(RwB97XD) =  -1280.31151143     A.U. after   12 cycles
            NFock= 12  Conv=0.39D-08     -V/T= 2.0037
 DoSCS=F DFT=T ScalE2(SS,OS)=  1.000000  1.000000
 Range of M.O.s used for correlation:     1   762
 NBasis=   762 NAE=    74 NBE=    74 NFC=     0 NFV=     0
 NROrb=    762 NOA=    74 NOB=    74 NVA=   688 NVB=   688

 **** Warning!!: The largest alpha MO coefficient is  0.25725363D+02

 Symmetrizing basis deriv contribution to polar:
 IMax=3 JMax=2 DiffMx= 0.00D+00
   1 Symmetry operations used in ECPInt.
 ECPInt:  NShTT=   41041 NPrTT=  113485 LenC2=   37106 LenP2D=   75973.
 LDataN:  DoStor=T MaxTD1= 7 Len=  274
 Calling FoFJK, ICntrl=      2127 FMM=F ISym2X=0 I1Cent= 0 IOpClX= 0 NMat=1 NMatS=1 NMatT=0.
 -------------------------------------------------------------------
 Center     Atomic                   Forces (Hartrees/Bohr)
 Number     Number              X              Y              Z
 -------------------------------------------------------------------
      1       14          -0.000226203   -0.000132760   -0.000117276
      2        8           0.000063491    0.000375247   -0.000013036
      3        8          -0.000093136    0.000000750    0.000101588
      4        8           0.000037853   -0.000207710   -0.000109803
      5        8          -0.000020418    0.000076481   -0.000018341
      6        8           0.000401583    0.000063337    0.000352020
      7        8          -0.000284909   -0.000318493   -0.000099505
      8        6           0.000133461    0.000012398    0.000107660
      9        1          -0.000030651   -0.000007702   -0.000045277
     10        6          -0.000045643    0.000049661    0.000032461
     11        1           0.000017669    0.000054790   -0.000109097
     12        1          -0.000039420   -0.000005221   -0.000028669
     13        1          -0.000003164    0.000002333   -0.000004234
     14        1           0.000029684   -0.000013834    0.000013451
     15        6           0.000043850    0.000010153    0.000020128
     16        1           0.000001866   -0.000000148    0.000007809
     17        8           0.000064915    0.000038638   -0.000079507
     18        1          -0.000003536    0.000004592   -0.000000535
     19        6           0.000037980    0.000007477    0.000008356
     20        1           0.000004094   -0.000001156    0.000006530
     21        1           0.000000465    0.000001331    0.000004137
     22        8           0.000036828   -0.000016171    0.000018248
     23        1          -0.000001899   -0.000008069    0.000009149
     24        6          -0.000030392    0.000011390    0.000012874
     25        1          -0.000001802    0.000001573   -0.000002287
     26        8          -0.000056923    0.000020198    0.000010518
     27        1          -0.000009420    0.000006320   -0.000002573
     28        6          -0.000031550    0.000001020    0.000001772
     29        1           0.000000516    0.000003715   -0.000004076
     30        1          -0.000006317    0.000001036   -0.000001373
     31        8           0.000002284   -0.000023342   -0.000058795
     32        1           0.000008220   -0.000009031   -0.000009221
     33        1           0.000000627    0.000001195   -0.000003097
 -------------------------------------------------------------------
 Cartesian Forces:  Max     0.000401583 RMS     0.000094140
 IRC-IRC-IRC-IRC-IRC-IRC-IRC-IRC-IRC-IRC-IRC-IRC-IRC-IRC-IRC-IRC-IRC-IRC
 Pt  1 Step number   1 out of a maximum of  50
 Modified Bulirsch-Stoer Extrapolation Cycles:
    EPS =    0.000010000000000
      PEZero:  N= 2 I= 1 D=  8.19D-04 Err=  8.04D-03
      PEZero:  N= 3 I= 2 D=  8.19D-04 Err=  1.23D-02
      PEZero:  N= 3 I= 1 D=  1.64D-03 Err=  1.05D-02
      PEZero:  N= 4 I= 3 D=  4.09D-04 Err=  2.04D-02
      PEZero:  N= 4 I= 2 D=  1.23D-03 Err=  1.49D-02
      PEZero:  N= 4 I= 1 D=  2.05D-03 Err=  1.16D-02
      PEZero:  N= 5 I= 4 D=  4.09D-04 Err=  3.02D-02
      PEZero:  N= 5 I= 3 D=  8.19D-04 Err=  2.49D-02
      PEZero:  N= 5 I= 2 D=  1.64D-03 Err=  1.75D-02
      PEZero:  N= 5 I= 1 D=  2.46D-03 Err=  1.37D-02
      PEZero:  N= 6 I= 5 D=  2.05D-04 Err=  4.99D-02
      PEZero:  N= 6 I= 4 D=  6.14D-04 Err=  3.63D-02
      PEZero:  N= 6 I= 3 D=  1.02D-03 Err=  2.86D-02
      PEZero:  N= 6 I= 2 D=  1.84D-03 Err=  1.96D-02
      PEZero:  N= 6 I= 1 D=  2.66D-03 Err=  1.49D-02
      PEZero:  N= 7 I= 6 D=  2.05D-04 Err=  2.03D-02
      PEZero:  N= 7 I= 5 D=  4.09D-04 Err=  1.95D-02
      PEZero:  N= 7 I= 4 D=  8.19D-04 Err=  3.76D-02
      PEZero:  N= 8 I= 7 D=  1.02D-04 Err=  2.24D-04
      PEZero:  N= 8 I= 6 D=  3.07D-04 Err=  2.00D-02
      PEZero:  N= 9 I= 8 D=  1.02D-04 Err=  9.49D-05
      PEZero:  N= 9 I= 7 D=  2.05D-04 Err=  8.19D-05
      PEZero:  N= 9 I= 6 D=  4.09D-04 Err=  9.67D-03
      PEZero:  N=10 I= 9 D=  5.12D-05 Err=  6.89D-05
      PEZero:  N=10 I= 8 D=  1.53D-04 Err=  3.00D-06
      PEZero:  N=10 I= 7 D=  2.56D-04 Err=  4.56D-05
 Maximum DWI energy   std dev =  0.000000603 at pt     2
 Maximum DWI gradient std dev =  0.372875948 at pt     3
 CORRECTOR INTEGRATION CONVERGENCE:
   Recorrection delta-x convergence threshold:    0.010000
   Delta-x Convergence NOT Met
 IRC-IRC-IRC-IRC-IRC-IRC-IRC-IRC-IRC-IRC-IRC-IRC-IRC-IRC-IRC-IRC-IRC-IRC
                          Input orientation:                          
 ---------------------------------------------------------------------
 Center     Atomic      Atomic             Coordinates (Angstroms)
 Number     Number       Type             X           Y           Z
 ---------------------------------------------------------------------
      1         14           0       -2.044274   -0.546763    0.011246
      2          8           0       -1.825824   -1.311040    1.547278
      3          8           0       -1.985521    0.804309   -1.103713
      4          8           0       -2.735360   -1.801487   -0.922376
      5          8           0       -0.374656   -0.966640   -0.543317
      6          8           0       -0.438595    0.895594    1.424056
      7          8           0       -3.557342    0.156380    0.575353
      8          6           0        0.764296    0.614469    0.880857
      9          1           0        1.602112    0.637234    1.625914
     10          6           0        0.727595   -0.823593    0.290894
     11          1           0       -3.698962   -0.254366    1.424531
     12          1           0       -1.265326   -0.647830    1.983533
     13          1           0       -2.003282   -2.280925   -1.302629
     14          1           0       -2.847408    1.205446   -0.989287
     15          6           0        1.185544    1.646607   -0.204547
     16          1           0        0.905706    1.268234   -1.193240
     17          8           0        2.632050    1.790641   -0.148198
     18          1           0        2.921397    2.099617   -1.004559
     19          6           0        0.515556    3.008184   -0.033919
     20          1           0        0.295176    3.158526    1.029256
     21          1           0        1.224273    3.782540   -0.362653
     22          8           0       -0.639607    3.142188   -0.818017
     23          1           0       -1.115961    2.278819   -0.798190
     24          6           0        1.946324   -1.330348   -0.500470
     25          1           0        2.218139   -0.608143   -1.283869
     26          8           0        1.568704   -2.555302   -1.118032
     27          1           0        0.610333   -2.423422   -1.210206
     28          6           0        3.190288   -1.599809    0.344981
     29          1           0        2.877494   -1.949946    1.338446
     30          1           0        3.742614   -2.414422   -0.132827
     31          8           0        4.074687   -0.503124    0.462068
     32          1           0        3.554884    0.312245    0.379576
     33          1           0        0.627775   -1.499441    1.157798
 ---------------------------------------------------------------------
                    Distance matrix (angstroms):
[...]
     30        1          -0.000022511   -0.000016689    0.000013732
     31        8           0.000104055   -0.000206095   -0.000416643
     32        1           0.000015017   -0.000006122   -0.000022279
     33        1          -0.000016475    0.000003381   -0.000002299
 -------------------------------------------------------------------
 Cartesian Forces:  Max     0.002246839 RMS     0.000517213
 IRC-IRC-IRC-IRC-IRC-IRC-IRC-IRC-IRC-IRC-IRC-IRC-IRC-IRC-IRC-IRC-IRC-IRC
 Error in corrector energy =          -0.0000023293
 Magnitude of corrector gradient =     0.0048639938
 Magnitude of analytic gradient =      0.0051462012
 Magnitude of difference =             0.0013483263
 Angle between gradients (degrees)=   15.1431
 Pt  8 Step number  49 out of a maximum of  50
 Modified Bulirsch-Stoer Extrapolation Cycles:
    EPS =    0.000010000000000
      PEZero:  N= 2 I= 1 D=  1.64D-03 Err=  7.19D-02
      PEZero:  N= 3 I= 2 D=  1.64D-03 Err=  3.43D-02
      PEZero:  N= 3 I= 1 D=  3.27D-03 Err=  2.03D-02
      PEZero:  N= 4 I= 3 D=  8.18D-04 Err=  4.10D-05
      PEZero:  N= 4 I= 2 D=  2.46D-03 Err=  3.43D-02
      PEZero:  N= 5 I= 4 D=  8.18D-04 Err=  2.73D-05
      PEZero:  N= 5 I= 3 D=  1.64D-03 Err=  9.82D-08
      PEZero:  N= 5 I= 2 D=  3.27D-03 Err=  1.02D-02
 Maximum DWI energy   std dev =  0.000001451 at pt    37
 Maximum DWI gradient std dev =  0.207485466 at pt    56
 CORRECTOR INTEGRATION CONVERGENCE:
   Recorrection delta-x convergence threshold:    0.010000
   Delta-x Convergence NOT Met
 IRC-IRC-IRC-IRC-IRC-IRC-IRC-IRC-IRC-IRC-IRC-IRC-IRC-IRC-IRC-IRC-IRC-IRC
                          Input orientation:                          
 ---------------------------------------------------------------------
 Center     Atomic      Atomic             Coordinates (Angstroms)
 Number     Number       Type             X           Y           Z
 ---------------------------------------------------------------------
      1         14           0       -2.087199   -0.579084   -0.018161
      2          8           0       -1.818087   -1.198569    1.550001
      3          8           0       -2.006883    0.809511   -1.063810
      4          8           0       -2.714309   -1.854696   -0.948977
      5          8           0       -0.386432   -0.942634   -0.544706
      6          8           0       -0.327178    0.933691    1.542850
      7          8           0       -3.649239    0.069503    0.502348
      8          6           0        0.815006    0.615648    0.905449
      9          1           0        1.707663    0.596820    1.587086
     10          6           0        0.718242   -0.814081    0.294964
     11          1           0       -3.743984   -0.259520    1.393480
     12          1           0       -1.219239   -0.506302    1.911519
     13          1           0       -1.960921   -2.301122   -1.328527
     14          1           0       -2.859153    1.223478   -0.922059
     15          6           0        1.203409    1.649090   -0.197509
     16          1           0        0.907735    1.262978   -1.178650
     17          8           0        2.650136    1.800068   -0.171428
     18          1           0        2.919633    2.114283   -1.032451
     19          6           0        0.528808    3.008049   -0.025107
     20          1           0        0.302790    3.150886    1.037075
     21          1           0        1.233703    3.786001   -0.351862
     22          8           0       -0.627078    3.139938   -0.813228
     23          1           0       -1.102908    2.279554   -0.787611
     24          6           0        1.933707   -1.329022   -0.498203
     25          1           0        2.207844   -0.607998   -1.281813
     26          8           0        1.550998   -2.552171   -1.116767
     27          1           0        0.594297   -2.412585   -1.212200
     28          6           0        3.179035   -1.600338    0.346037
     29          1           0        2.867720   -1.929350    1.347060
     30          1           0        3.718789   -2.429240   -0.121285
     31          8           0        4.079122   -0.513941    0.439603
     32          1           0        3.568831    0.307537    0.360261
     33          1           0        0.609701   -1.494377    1.156438
 ---------------------------------------------------------------------
                    Distance matrix (angstroms):
                    1          2          3          4          5
     1  Si   0.000000
     2  O    1.707429   0.000000
     3  O    1.740124   3.301521   0.000000
     4  O    1.699079   2.734704   2.758919   0.000000
     5  O    1.817148   2.550086   2.442405   2.532648   0.000000
     6  O    2.796948   2.601806   3.103467   4.436519   2.807490
     7  O    1.769622   2.461443   2.387006   2.585146   3.573045
     8  C    3.271580   3.261903   3.446538   4.690156   2.444309
     9  H    4.284921   3.956730   4.568407   5.656446   3.361501
    10  C    2.832626   2.855856   3.450887   3.796403   1.393512
    11  H    2.199952   2.148346   3.193529   3.015282   3.936543
    12  H    2.117148   0.984149   3.347287   3.497977   2.630018
    13  H    2.167583   3.085765   3.122215   0.954436   2.222359
    14  H    2.159207   3.614030   0.958033   3.081698   3.308896
    15  C    3.978068   4.504708   3.429481   5.309400   3.060257
    16  H    3.702642   4.575463   2.951917   4.784542   2.634669
    17  O    5.303414   5.649793   4.844107   6.537519   4.108831
    18  H    5.775066   6.331670   5.096467   6.892102   4.529096
    19  C    4.439715   5.067990   3.513147   5.917570   4.088465
    20  H    4.553927   4.866105   3.902607   6.172774   4.442293
    21  H    5.494881   6.146255   4.457327   6.910919   5.002201
    22  O    4.073722   5.081929   2.719842   5.414917   4.098465
    23  H    3.119727   4.251265   1.747708   4.440121   3.309809
    24  C    4.118316   4.276460   4.519013   4.699317   2.352552
    25  H    4.477170   4.957425   4.452054   5.088480   2.717642
    26  O    4.282112   4.504956   4.895123   4.325213   2.582924
    27  H    3.460906   3.863054   4.143677   3.365620   1.888950
    28  C    5.376692   5.155791   5.889719   6.039310   3.733437
    29  H    5.313969   4.746790   6.088958   6.036258   3.891259
    30  H    6.094523   5.913100   6.645388   6.511523   4.386584
    31  O    6.183632   6.039766   6.407124   7.062329   4.592800
    32  H    5.737593   5.718630   5.776551   6.772533   4.245703
    33  H    3.080701   2.477207   4.133270   3.951158   2.047094
                    6          7          8          9         10
     6  O    0.000000
     7  O    3.586859   0.000000
     8  C    1.346112   4.515557   0.000000
     9  H    2.063012   5.491004   1.123307   0.000000
    10  C    2.388479   4.460787   1.557620   2.153875   0.000000
    11  H    3.622241   0.954647   4.667814   5.521889   4.628794
    12  H    1.733571   2.867440   2.531620   3.144661   2.542009
    13  H    4.623628   3.438369   4.604776   5.509752   3.467697
    14  H    3.545511   1.996204   4.148336   5.248268   4.293082
    15  C    2.425560   5.151028   1.560569   2.132211   2.558345
    16  H    3.006660   5.001615   2.184286   2.955157   2.553747
    17  O    3.543128   6.567416   2.435204   2.329900   3.283826
    18  H    4.309032   7.048888   3.229678   3.260911   3.896598
    19  C    2.737547   5.135109   2.582911   3.130957   3.840184
    20  H    2.359793   5.039781   2.589812   2.966385   4.055157
    21  H    3.763238   6.195576   3.436172   3.762318   4.673846
    22  O    3.241693   4.504638   3.377204   4.204757   4.321139
    23  H    2.800742   3.610004   3.051792   4.045997   3.749551
    24  C    3.794386   5.841768   2.646407   2.847524   1.540011
    25  H    4.096567   6.160167   2.867302   3.151563   2.178901
    26  O    4.769942   6.044598   3.829637   4.153494   2.389022
    27  H    4.431363   5.206537   3.701802   4.258180   2.200481
    28  C    4.488563   7.031225   3.288186   2.921068   2.583856
    29  H    4.294498   6.868749   3.299344   2.790139   2.640263
    30  H    5.518016   7.805157   4.330991   4.014997   3.432970
    31  O    4.767418   7.750607   3.485317   2.859077   3.377354
    32  H    4.119402   7.223391   2.824130   2.247828   3.064009
    33  H    2.631079   4.583899   2.134795   2.400851   1.103051
                   11         12         13         14         15
    11  H    0.000000
    12  H    2.589132   0.000000
    13  H    3.841455   3.777481   0.000000
    14  H    2.888587   3.702786   3.659897   0.000000
    15  C    5.536311   3.868195   5.186169   4.148557   0.000000
    16  H    5.529227   4.147712   4.577604   3.775824   1.095054
    17  O    6.897508   4.962870   6.278573   5.590006   1.454818
    18  H    7.478227   5.715303   6.588116   5.848085   1.964423
    19  C    5.562927   4.376855   6.007075   3.932874   1.526951
    20  H    5.304176   4.056630   6.359626   4.189390   2.142593
    21  H    6.647544   5.437250   6.943526   4.862419   2.142693
    22  O    5.112825   4.590203   5.625816   2.943946   2.439759
    23  H    4.263725   3.880700   4.691628   2.053721   2.462682
    24  C    6.079348   4.052739   4.099090   5.446689   3.081055
    25  H    6.534745   4.685361   4.499716   5.399833   2.697971
    26  O    6.292410   4.585882   3.527242   5.808861   4.314678
    27  H    5.499631   4.084170   2.560291   5.023092   4.230581
    28  C    7.129034   4.795046   5.451092   6.785405   3.841526
    29  H    6.819466   4.364277   5.532879   6.919993   4.238025
    30  H    7.918029   5.675747   5.808007   7.566566   4.792256
    31  O    7.885151   5.499021   6.542355   7.280962   3.654359
    32  H    7.407183   5.098466   6.343127   6.618329   2.775985
    33  H    4.531626   2.211665   3.665240   4.872355   3.473766
                   16         17         18         19         20
    16  H    0.000000
    17  O    2.083008   0.000000
    18  H    2.189482   0.955364   0.000000
    19  C    2.125917   2.445539   2.744012   0.000000
    20  H    2.973145   2.965674   3.493616   1.095316   0.000000
    21  H    2.674972   2.445969   2.469858   1.099479   1.788608
    22  O    2.451972   3.598235   3.698539   1.405206   2.070844
    23  H    2.286705   3.833396   4.033373   1.942837   2.462658
    24  C    2.869511   3.226648   3.621302   4.583421   5.008647
    25  H    2.280675   2.688375   2.824826   4.180224   4.809957
    26  O    3.869493   4.587347   4.863751   5.757833   6.222694
    27  H    3.689055   4.801679   5.092350   5.549482   6.008030
    28  C    3.960057   3.479980   3.970633   5.329041   5.596825
    29  H    4.517933   4.032581   4.692093   5.633051   5.699453
    30  H    4.759467   4.362520   4.702391   6.304708   6.644446
    31  O    3.979181   2.787472   3.227835   5.022460   5.296095
    32  H    3.219091   1.831486   2.371800   4.084484   4.382891
    33  H    3.625530   4.096337   4.811388   4.655582   4.656922
                   21         22         23         24         25
    21  H    0.000000
    22  O    2.023058   0.000000
    23  H    2.814074   0.983529   0.000000
    24  C    5.164773   5.160278   4.725104   0.000000
    25  H    4.595757   4.722646   4.420777   1.099578   0.000000
    26  O    6.392040   6.102152   5.522420   1.423089   2.058761
    27  H    6.290587   5.699250   5.007689   1.864918   2.421758
    28  C    5.769230   6.188749   5.888442   1.528789   2.139590
    29  H    6.182361   6.525193   6.167462   2.153548   3.015358
    30  H    6.697614   7.097964   6.772407   2.130508   2.635660
    31  O    5.216543   6.088411   6.013577   2.479243   2.544367
    32  H    4.249665   5.196655   5.199193   2.467573   2.320969
    33  H    5.526911   5.185180   4.577654   2.125598   3.047096
                   26         27         28         29         30
    26  O    0.000000
    27  H    0.971529   0.000000
    28  C    2.386690   3.125495   0.000000
    29  H    2.862186   3.457135   1.098733   0.000000
    30  H    2.388601   3.309505   1.093985   1.769251   0.000000
    31  O    3.601123   4.298524   1.413920   2.072283   2.028006
    32  H    3.798841   4.326609   1.947339   2.543422   2.782863
    33  H    2.678139   2.540431   2.696192   2.307420   3.488979
                   31         32         33
    31  O    0.000000
    32  H    0.970319   0.000000
    33  H    3.675866   3.554890   0.000000
 Symmetry turned off by external request.
 Stoichiometry    C6H16O10Si(2-)
 Framework group  C1[X(C6H16O10Si)]
 Deg. of freedom    93
 Full point group                 C1      NOp   1
 Rotational constants (GHZ):           0.5614861           0.3434525           0.2534959
 Standard basis: def2TZVPP (5D, 7F)
   762 basis functions,  1157 primitive gaussians,   864 cartesian basis functions
    74 alpha electrons       74 beta electrons
       nuclear repulsion energy      1682.2441286406 Hartrees.
 NAtoms=   33 NActive=   33 NUniq=   33 SFac= 1.00D+00 NAtFMM=   60 NAOKFM=F Big=F
 Integral buffers will be    131072 words long.
 Raffenetti 2 integral format.
 Two-electron integral symmetry is turned off.
 Nuclear repulsion after empirical dispersion term =     1682.2162135473 Hartrees.
 One-electron integrals computed using PRISM.
   1 Symmetry operations used in ECPInt.
 ECPInt:  NShTT=   41041 NPrTT=  113485 LenC2=   37080 LenP2D=   75890.
 LDataN:  DoStor=T MaxTD1= 6 Len=  172
 NBasis=   762 RedAO= T EigKep=  4.31D-05  NBF=   762
 NBsUse=   762 1.00D-06 EigRej= -1.00D+00 NBFU=   762
 Initial guess from the checkpoint file:  "PmonoL_HbiL_mannitol_IRC_reverse.chk"
 B after Tr=     0.000024    0.000025    0.000027
         Rot=    1.000000    0.000007   -0.000008    0.000003 Ang=   0.00 deg.
 ExpMin= 7.01D-02 ExpMax= 4.48D+04 ExpMxC= 1.53D+03 IAcc=3 IRadAn=         5 AccDes= 0.00D+00
 Harris functional with IExCor= 4639 and IRadAn=       5 diagonalized for initial guess.
 HarFok:  IExCor= 4639 AccDes= 0.00D+00 IRadAn=         5 IDoV= 1 UseB2=F ITyADJ=14
 ICtDFT=  3500011 ScaDFX=  1.000000  1.000000  1.000000  1.000000
 FoFCou: FMM=F IPFlag=           0 FMFlag=      100000 FMFlg1=           0
         NFxFlg=           0 DoJE=T BraDBF=F KetDBF=T FulRan=T
         wScrn=  0.000000 ICntrl=       500 IOpCl=  0 I1Cent=   200000004 NGrid=           0
         NMat0=    1 NMatS0=      1 NMatT0=    0 NMatD0=    1 NMtDS0=    0 NMtDT0=    0
 Symmetry not used in FoFCou.
 Requested convergence on RMS density matrix=1.00D-08 within 128 cycles.
 Requested convergence on MAX density matrix=1.00D-06.
 Requested convergence on             energy=1.00D-06.
 No special actions if energy rises.
 Integral accuracy reduced to 1.0D-05 until final iterations.
 Initial convergence to 1.0D-05 achieved.  Increase integral accuracy.
 SCF Done:  E(RwB97XD) =  -1280.31320443     A.U. after    9 cycles
            NFock=  9  Conv=0.59D-08     -V/T= 2.0037
 DoSCS=F DFT=T ScalE2(SS,OS)=  1.000000  1.000000
 Range of M.O.s used for correlation:     1   762
 NBasis=   762 NAE=    74 NBE=    74 NFC=     0 NFV=     0
 NROrb=    762 NOA=    74 NOB=    74 NVA=   688 NVB=   688

 **** Warning!!: The largest alpha MO coefficient is  0.20813471D+02

 Symmetrizing basis deriv contribution to polar:
 IMax=3 JMax=2 DiffMx= 0.00D+00
   1 Symmetry operations used in ECPInt.
 ECPInt:  NShTT=   41041 NPrTT=  113485 LenC2=   37080 LenP2D=   75890.
 LDataN:  DoStor=T MaxTD1= 7 Len=  274
 Calling FoFJK, ICntrl=      2127 FMM=F ISym2X=0 I1Cent= 0 IOpClX= 0 NMat=1 NMatS=1 NMatT=0.
 -------------------------------------------------------------------
 Center     Atomic                   Forces (Hartrees/Bohr)
 Number     Number              X              Y              Z
 -------------------------------------------------------------------
      1       14          -0.001143859   -0.000763633   -0.000695188
      2        8           0.000111855    0.002157118    0.000111136
      3        8          -0.000374696    0.000198981    0.000734205
      4        8           0.000492379   -0.000829447   -0.000389963
      5        8          -0.000154287    0.000339958   -0.000057691
      6        8           0.001779417    0.000474576    0.001810923
      7        8          -0.001740379   -0.001920116   -0.000478683
      8        6           0.000598217   -0.000021200    0.000262876
      9        1           0.000091997   -0.000041057   -0.000043015
     10        6          -0.000114014    0.000091301    0.000036195
     11        1           0.000043537    0.000292356   -0.000874875
     12        1           0.000028144    0.000130764   -0.000078459
     13        1           0.000046998   -0.000009051   -0.000017584
     14        1          -0.000002564   -0.000009067    0.000070782
     15        6           0.000195881    0.000011229    0.000088043
     16        1           0.000000630   -0.000005455    0.000014967
     17        8           0.000260334    0.000123177   -0.000362687
     18        1          -0.000004017    0.000014981   -0.000026044
     19        6           0.000143218   -0.000019314    0.000124547
     20        1           0.000006367   -0.000008984    0.000009481
     21        1           0.000009132    0.000002024    0.000014817
     22        8           0.000206167   -0.000030390    0.000083500
     23        1           0.000010197   -0.000000640    0.000009479
     24        6          -0.000137844   -0.000001556    0.000029237
     25        1          -0.000009255   -0.000000898    0.000002529
     26        8          -0.000271707    0.000035332    0.000023165
     27        1          -0.000015208    0.000011433   -0.000003165
     28        6          -0.000124553   -0.000019775    0.000017051
     29        1          -0.000008295    0.000022466    0.000009692
     30        1          -0.000024013   -0.000017173    0.000013880
     31        8           0.000102006   -0.000204493   -0.000414290
     32        1           0.000016597   -0.000006624   -0.000023220
     33        1          -0.000018382    0.000003176   -0.000001642
 -------------------------------------------------------------------
 Cartesian Forces:  Max     0.002157118 RMS     0.000498968
 IRC-IRC-IRC-IRC-IRC-IRC-IRC-IRC-IRC-IRC-IRC-IRC-IRC-IRC-IRC-IRC-IRC-IRC
 Error in corrector energy =          -0.0000020937
 Magnitude of corrector gradient =     0.0049345557
 Magnitude of analytic gradient =      0.0049646666
 Magnitude of difference =             0.0013021561
 Angle between gradients (degrees)=   15.1133
 Pt  8 Step number  50 out of a maximum of  50
 Modified Bulirsch-Stoer Extrapolation Cycles:
    EPS =    0.000010000000000
      PEZero:  N= 2 I= 1 D=  1.64D-03 Err=  7.19D-02
      PEZero:  N= 3 I= 2 D=  1.64D-03 Err=  3.43D-02
      PEZero:  N= 3 I= 1 D=  3.27D-03 Err=  2.05D-02
      PEZero:  N= 4 I= 3 D=  8.18D-04 Err=  1.25D-05
      PEZero:  N= 4 I= 2 D=  2.46D-03 Err=  3.42D-02
      PEZero:  N= 5 I= 4 D=  8.18D-04 Err=  8.34D-06
      PEZero:  N= 5 I= 3 D=  1.64D-03 Err=  1.61D-08
      PEZero:  N= 5 I= 2 D=  3.27D-03 Err=  1.03D-02
 Maximum DWI energy   std dev =  0.000000588 at pt    48
 Maximum DWI gradient std dev =  0.040378577 at pt    57
 CORRECTOR INTEGRATION CONVERGENCE:
   Recorrection delta-x convergence threshold:    0.010000
   Delta-x Convergence NOT Met
 Maximum number of corrector steps exceded.
 Error termination via Lnk1e in /opt/software/gaussian/g16.c01/l123.exe at Wed Feb 14 12:12:29 2024.
 Job cpu time:       8 days 17 hours 33 minutes 42.2 seconds.
 Elapsed time:       2 days 22 hours 26 minutes 53.1 seconds.
 File lengths (MBytes):  RWF=   1292 Int=      0 D2E=      0 Chk=     43 Scr=      1
