 Entering Gaussian System, Link 0=/opt/software/gaussian/g16.c01/g16
 Initial command:
 /opt/software/gaussian/g16.c01/l1.exe "/scratch/arhender/17209094/Gau-31008.inp" -scrdir="/scratch/arhender/17209094/"
 Entering Link 1 = /opt/software/gaussian/g16.c01/l1.exe PID=     31009.
  
 Copyright (c) 1988-2019, Gaussian, Inc.  All Rights Reserved.
  
 This is part of the Gaussian(R) 16 program.  It is based on
 the Gaussian(R) 09 system (copyright 2009, Gaussian, Inc.),
 the Gaussian(R) 03 system (copyright 2003, Gaussian, Inc.),
 the Gaussian(R) 98 system (copyright 1998, Gaussian, Inc.),
 the Gaussian(R) 94 system (copyright 1995, Gaussian, Inc.),
 the Gaussian 92(TM) system (copyright 1992, Gaussian, Inc.),
 the Gaussian 90(TM) system (copyright 1990, Gaussian, Inc.),
 the Gaussian 88(TM) system (copyright 1988, Gaussian, Inc.),
 the Gaussian 86(TM) system (copyright 1986, Carnegie Mellon
 University), and the Gaussian 82(TM) system (copyright 1983,
 Carnegie Mellon University). Gaussian is a federally registered
 trademark of Gaussian, Inc.
  
 This software contains proprietary and confidential information,
 including trade secrets, belonging to Gaussian, Inc.
  
 This software is provided under written license and may be
 used, copied, transmitted, or stored only in accord with that
 written license.
  
 The following legend is applicable only to US Government
 contracts under FAR:
  
                    RESTRICTED RIGHTS LEGEND
  
 Use, reproduction and disclosure by the US Government is
 subject to restrictions as set forth in subparagraphs (a)
 and (c) of the Commercial Computer Software - Restricted
 Rights clause in FAR 52.227-19.
  
 Gaussian, Inc.
 340 Quinnipiac St., Bldg. 40, Wallingford CT 06492
  
  
 ---------------------------------------------------------------
 Warning -- This program may not be used in any manner that
 competes with the business of Gaussian, Inc. or will provide
 assistance to any competitor of Gaussian, Inc.  The licensee
 of this program is prohibited from giving any competitor of
 Gaussian, Inc. access to this program.  By using this program,
 the user acknowledges that Gaussian, Inc. is engaged in the
 business of creating and licensing software in the field of
 computational chemistry and represents and warrants to the
 licensee that it is not a competitor of Gaussian, Inc. and that
 it will not use this program in any manner prohibited above.
 ---------------------------------------------------------------
  

 Cite this work as:
 Gaussian 16, Revision C.01,
 M. J. Frisch, G. W. Trucks, H. B. Schlegel, G. E. Scuseria, 
 M. A. Robb, J. R. Cheeseman, G. Scalmani, V. Barone, 
 G. A. Petersson, H. Nakatsuji, X. Li, M. Caricato, A. V. Marenich, 
 J. Bloino, B. G. Janesko, R. Gomperts, B. Mennucci, H. P. Hratchian, 
 J. V. Ortiz, A. F. Izmaylov, J. L. Sonnenberg, D. Williams-Young, 
 F. Ding, F. Lipparini, F. Egidi, J. Goings, B. Peng, A. Petrone, 
 T. Henderson, D. Ranasinghe, V. G. Zakrzewski, J. Gao, N. Rega, 
 G. Zheng, W. Liang, M. Hada, M. Ehara, K. Toyota, R. Fukuda, 
 J. Hasegawa, M. Ishida, T. Nakajima, Y. Honda, O. Kitao, H. Nakai, 
 T. Vreven, K. Throssell, J. A. Montgomery, Jr., J. E. Peralta, 
 F. Ogliaro, M. J. Bearpark, J. J. Heyd, E. N. Brothers, K. N. Kudin, 
 V. N. Staroverov, T. A. Keith, R. Kobayashi, J. Normand, 
 K. Raghavachari, A. P. Rendell, J. C. Burant, S. S. Iyengar, 
 J. Tomasi, M. Cossi, J. M. Millam, M. Klene, C. Adamo, R. Cammi, 
 J. W. Ochterski, R. L. Martin, K. Morokuma, O. Farkas, 
 J. B. Foresman, and D. J. Fox, Gaussian, Inc., Wallingford CT, 2019.
 
 ******************************************
 Gaussian 16:  ES64L-G16RevC.01  3-Jul-2019
                23-Feb-2024 
 ******************************************
 %chk=ReactantOpt_MannAttQ0.chk
 %mem=1600MB
 %nprocs=4
 Will use up to    4 processors via shared memory.
 ---------------------------------------------
 # opt freq wb97xd/def2tzvpp geom=connectivity
 ---------------------------------------------
 1/18=20,19=15,26=3,38=1,57=2/1,3;
 2/9=110,12=2,17=6,18=5,40=1/2;
 3/5=44,7=202,11=2,25=1,30=1,71=1,74=-58/1,2,3;
 4//1;
 5/5=2,38=5/2;
 6/7=2,8=2,9=2,10=2,28=1/1;
 7//1,2,3,16;
 1/18=20,19=15,26=3/3(2);
 2/9=110/2;
 99//99;
 2/9=110/2;
 3/5=44,7=202,11=2,25=1,30=1,71=1,74=-58/1,2,3;
 4/5=5,16=3,69=1/1;
 5/5=2,38=5/2;
 7//1,2,3,16;
 1/18=20,19=15,26=3/3(-5);
 2/9=110/2;
 6/7=2,8=2,9=2,10=2,19=2,28=1/1;
 99/9=1/99;
 ---------------------------------------------------------------
 reactant structureopt from forward IRC of mannitol attack on Q0
 ---------------------------------------------------------------
 Symbolic Z-matrix:
 Charge =  0 Multiplicity = 1
 Si                    2.4276   -1.2903    0.15797 
 O                     1.98696  -2.68419  -0.55282 
 H                     1.03763  -2.77462  -0.64237 
 O                     4.0203   -1.45078   0.51699 
 H                     4.39374  -2.32356   0.41922 
 O                     2.34924   0.03227  -0.83299 
 H                     3.20393   0.30895  -1.15833 
 O                     1.59837  -0.97616   1.53103 
 H                     2.11279  -1.00821   2.33359 
 C                    -1.11994  -0.19503   0.02493 
 H                    -0.96665  -0.30097   1.0981 
 C                    -0.78998   1.2597   -0.39425 
 H                    -1.72457   1.80846  -0.50052 
 O                    -0.2239   -1.09542  -0.6113 
 H                    -0.16365  -0.80022  -1.5259 
 O                    -0.16005   1.27012  -1.66788 
 H                     0.75954   1.00233  -1.53519 
 C                    -2.54406  -0.61662  -0.32116 
 H                    -2.66416  -0.58101  -1.41486 
 C                     0.04936   2.00286   0.64882 
 H                     0.86675   1.35286   0.98159 
 C                     0.6815    3.2732    0.07729 
 H                     1.02846   3.89016   0.90935 
 H                     1.56973   2.99185  -0.50178 
 C                    -2.81312  -2.03669   0.14493 
 H                    -2.12879  -2.73051  -0.34779 
 H                    -2.65397  -2.08556   1.22809 
 O                    -3.43291   0.27923   0.29757 
 H                    -4.30987  -0.10233   0.22805 
 O                    -0.83685   2.25797   1.72111 
 H                    -0.33711   2.59354   2.46341 
 O                    -0.18483   4.07603  -0.68347 
 H                    -0.39614   3.5876   -1.48114 
 O                    -4.1618   -2.32888  -0.18196 
 H                    -4.42845  -3.13246   0.25932 
 
 Add virtual bond connecting atoms O14        and H3         Dist= 3.97D+00.
 Add virtual bond connecting atoms H17        and O6         Dist= 3.76D+00.

 GradGradGradGradGradGradGradGradGradGradGradGradGradGradGradGradGradGrad
 Berny optimization.
 Initialization pass.
                           ----------------------------
                           !    Initial Parameters    !
                           ! (Angstroms and Degrees)  !
 --------------------------                            --------------------------
 ! Name  Definition              Value          Derivative Info.                !
 --------------------------------------------------------------------------------
 ! R1    R(1,2)                  1.6255         estimate D2E/DX2                !
 ! R2    R(1,4)                  1.6405         estimate D2E/DX2                !
 ! R3    R(1,6)                  1.6545         estimate D2E/DX2                !
 ! R4    R(1,8)                  1.6345         estimate D2E/DX2                !
 ! R5    R(2,3)                  0.9578         estimate D2E/DX2                !
 ! R6    R(3,14)                 2.1005         estimate D2E/DX2                !
 ! R7    R(4,5)                  0.9543         estimate D2E/DX2                !
 ! R8    R(6,7)                  0.9555         estimate D2E/DX2                !
 ! R9    R(6,17)                 1.9903         estimate D2E/DX2                !
 ! R10   R(8,9)                  0.9538         estimate D2E/DX2                !
 ! R11   R(10,11)                1.0892         estimate D2E/DX2                !
 ! R12   R(10,12)                1.5495         estimate D2E/DX2                !
 ! R13   R(10,14)                1.4207         estimate D2E/DX2                !
 ! R14   R(10,18)                1.525          estimate D2E/DX2                !
 ! R15   R(12,13)                1.089          estimate D2E/DX2                !
 ! R16   R(12,16)                1.4209         estimate D2E/DX2                !
 ! R17   R(12,20)                1.5313         estimate D2E/DX2                !
 ! R18   R(14,15)                0.963          estimate D2E/DX2                !
 ! R19   R(16,17)                0.9669         estimate D2E/DX2                !
 ! R20   R(18,19)                1.1008         estimate D2E/DX2                !
 ! R21   R(18,25)                1.5186         estimate D2E/DX2                !
 ! R22   R(18,28)                1.4055         estimate D2E/DX2                !
 ! R23   R(20,21)                1.0961         estimate D2E/DX2                !
 ! R24   R(20,22)                1.5297         estimate D2E/DX2                !
 ! R25   R(20,30)                1.4143         estimate D2E/DX2                !
 ! R26   R(22,23)                1.0924         estimate D2E/DX2                !
 ! R27   R(22,24)                1.097          estimate D2E/DX2                !
 ! R28   R(22,32)                1.4049         estimate D2E/DX2                !
 ! R29   R(25,26)                1.092          estimate D2E/DX2                !
 ! R30   R(25,27)                1.0959         estimate D2E/DX2                !
 ! R31   R(25,34)                1.4182         estimate D2E/DX2                !
 ! R32   R(28,29)                0.9589         estimate D2E/DX2                !
 ! R33   R(30,31)                0.9557         estimate D2E/DX2                !
 ! R34   R(32,33)                0.9589         estimate D2E/DX2                !
 ! R35   R(34,35)                0.9548         estimate D2E/DX2                !
 ! A1    A(2,1,4)              105.9608         estimate D2E/DX2                !
 ! A2    A(2,1,6)              114.2509         estimate D2E/DX2                !
 ! A3    A(2,1,8)              113.241          estimate D2E/DX2                !
 ! A4    A(4,1,6)              104.789          estimate D2E/DX2                !
 ! A5    A(4,1,8)              109.1174         estimate D2E/DX2                !
 ! A6    A(6,1,8)              108.9951         estimate D2E/DX2                !
 ! A7    A(1,2,3)              112.9866         estimate D2E/DX2                !
 ! A8    A(2,3,14)             121.225          estimate D2E/DX2                !
 ! A9    A(1,4,5)              116.548          estimate D2E/DX2                !
 ! A10   A(1,6,7)              113.145          estimate D2E/DX2                !
 ! A11   A(1,6,17)             129.6998         estimate D2E/DX2                !
 ! A12   A(7,6,17)             116.9506         estimate D2E/DX2                !
 ! A13   A(1,8,9)              115.2622         estimate D2E/DX2                !
 ! A14   A(11,10,12)           109.1406         estimate D2E/DX2                !
 ! A15   A(11,10,14)           106.9074         estimate D2E/DX2                !
 ! A16   A(11,10,18)           109.1553         estimate D2E/DX2                !
 ! A17   A(12,10,14)           109.8504         estimate D2E/DX2                !
 ! A18   A(12,10,18)           113.3919         estimate D2E/DX2                !
 ! A19   A(14,10,18)           108.1885         estimate D2E/DX2                !
 ! A20   A(10,12,13)           108.4665         estimate D2E/DX2                !
 ! A21   A(10,12,16)           110.1072         estimate D2E/DX2                !
 ! A22   A(10,12,20)           112.8362         estimate D2E/DX2                !
 ! A23   A(13,12,16)           106.8161         estimate D2E/DX2                !
 ! A24   A(13,12,20)           106.9977         estimate D2E/DX2                !
 ! A25   A(16,12,20)           111.3466         estimate D2E/DX2                !
 ! A26   A(3,14,10)            153.134          estimate D2E/DX2                !
 ! A27   A(3,14,15)            101.1541         estimate D2E/DX2                !
 ! A28   A(10,14,15)           105.6948         estimate D2E/DX2                !
 ! A29   A(12,16,17)           107.252          estimate D2E/DX2                !
 ! A30   A(6,17,16)            160.5652         estimate D2E/DX2                !
 ! A31   A(10,18,19)           108.5665         estimate D2E/DX2                !
 ! A32   A(10,18,25)           110.7514         estimate D2E/DX2                !
 ! A33   A(10,18,28)           108.3288         estimate D2E/DX2                !
 ! A34   A(19,18,25)           108.4113         estimate D2E/DX2                !
 ! A35   A(19,18,28)           110.3496         estimate D2E/DX2                !
 ! A36   A(25,18,28)           110.4178         estimate D2E/DX2                !
 ! A37   A(12,20,21)           109.1338         estimate D2E/DX2                !
 ! A38   A(12,20,22)           112.0271         estimate D2E/DX2                !
 ! A39   A(12,20,30)           105.102          estimate D2E/DX2                !
 ! A40   A(21,20,22)           107.3213         estimate D2E/DX2                !
 ! A41   A(21,20,30)           110.125          estimate D2E/DX2                !
 ! A42   A(22,20,30)           113.1048         estimate D2E/DX2                !
 ! A43   A(20,22,23)           108.4018         estimate D2E/DX2                !
 ! A44   A(20,22,24)           108.5922         estimate D2E/DX2                !
 ! A45   A(20,22,32)           114.9632         estimate D2E/DX2                !
 ! A46   A(23,22,24)           106.8429         estimate D2E/DX2                !
 ! A47   A(23,22,32)           106.5926         estimate D2E/DX2                !
 ! A48   A(24,22,32)           111.1007         estimate D2E/DX2                !
 ! A49   A(18,25,26)           110.1584         estimate D2E/DX2                !
 ! A50   A(18,25,27)           108.6215         estimate D2E/DX2                !
 ! A51   A(18,25,34)           106.8829         estimate D2E/DX2                !
 ! A52   A(26,25,27)           109.0644         estimate D2E/DX2                !
 ! A53   A(26,25,34)           111.1656         estimate D2E/DX2                !
 ! A54   A(27,25,34)           110.9006         estimate D2E/DX2                !
 ! A55   A(18,28,29)           107.0276         estimate D2E/DX2                !
 ! A56   A(20,30,31)           108.9389         estimate D2E/DX2                !
 ! A57   A(22,32,33)           107.1733         estimate D2E/DX2                !
 ! A58   A(25,34,35)           109.4192         estimate D2E/DX2                !
 ! D1    D(4,1,2,3)            168.0974         estimate D2E/DX2                !
 ! D2    D(6,1,2,3)            -77.066          estimate D2E/DX2                !
 ! D3    D(8,1,2,3)             48.5236         estimate D2E/DX2                !
 ! D4    D(2,1,4,5)            -10.4369         estimate D2E/DX2                !
 ! D5    D(6,1,4,5)           -131.5913         estimate D2E/DX2                !
 ! D6    D(8,1,4,5)            111.8062         estimate D2E/DX2                !
 ! D7    D(2,1,6,7)           -102.4308         estimate D2E/DX2                !
 ! D8    D(2,1,6,17)            72.1346         estimate D2E/DX2                !
 ! D9    D(4,1,6,7)             13.0912         estimate D2E/DX2                !
 ! D10   D(4,1,6,17)          -172.3434         estimate D2E/DX2                !
 ! D11   D(8,1,6,7)            129.7779         estimate D2E/DX2                !
 ! D12   D(8,1,6,17)           -55.6567         estimate D2E/DX2                !
 ! D13   D(2,1,8,9)            112.4193         estimate D2E/DX2                !
 ! D14   D(4,1,8,9)             -5.329          estimate D2E/DX2                !
 ! D15   D(6,1,8,9)           -119.2223         estimate D2E/DX2                !
 ! D16   D(1,2,3,14)            21.6664         estimate D2E/DX2                !
 ! D17   D(2,3,14,10)          -99.0757         estimate D2E/DX2                !
 ! D18   D(2,3,14,15)           82.987          estimate D2E/DX2                !
 ! D19   D(1,6,17,16)            7.6327         estimate D2E/DX2                !
 ! D20   D(7,6,17,16)         -177.9738         estimate D2E/DX2                !
 ! D21   D(11,10,12,13)       -100.4209         estimate D2E/DX2                !
 ! D22   D(11,10,12,16)        143.0241         estimate D2E/DX2                !
 ! D23   D(11,10,12,20)         17.941          estimate D2E/DX2                !
 ! D24   D(14,10,12,13)        142.669          estimate D2E/DX2                !
 ! D25   D(14,10,12,16)         26.1141         estimate D2E/DX2                !
 ! D26   D(14,10,12,20)        -98.969          estimate D2E/DX2                !
 ! D27   D(18,10,12,13)         21.4879         estimate D2E/DX2                !
 ! D28   D(18,10,12,16)        -95.067          estimate D2E/DX2                !
 ! D29   D(18,10,12,20)        139.8499         estimate D2E/DX2                !
 ! D30   D(11,10,14,3)          19.6729         estimate D2E/DX2                !
 ! D31   D(11,10,14,15)       -162.4292         estimate D2E/DX2                !
 ! D32   D(12,10,14,3)         137.9727         estimate D2E/DX2                !
 ! D33   D(12,10,14,15)        -44.1294         estimate D2E/DX2                !
 ! D34   D(18,10,14,3)         -97.7698         estimate D2E/DX2                !
 ! D35   D(18,10,14,15)         80.1281         estimate D2E/DX2                !
 ! D36   D(11,10,18,19)       -175.6427         estimate D2E/DX2                !
 ! D37   D(11,10,18,25)        -56.7248         estimate D2E/DX2                !
 ! D38   D(11,10,18,28)         64.5083         estimate D2E/DX2                !
 ! D39   D(12,10,18,19)         62.4567         estimate D2E/DX2                !
 ! D40   D(12,10,18,25)       -178.6254         estimate D2E/DX2                !
 ! D41   D(12,10,18,28)        -57.3923         estimate D2E/DX2                !
 ! D42   D(14,10,18,19)        -59.654          estimate D2E/DX2                !
 ! D43   D(14,10,18,25)         59.2639         estimate D2E/DX2                !
 ! D44   D(14,10,18,28)       -179.503          estimate D2E/DX2                !
 ! D45   D(10,12,16,17)        -77.338          estimate D2E/DX2                !
 ! D46   D(13,12,16,17)        165.08           estimate D2E/DX2                !
 ! D47   D(20,12,16,17)         48.5926         estimate D2E/DX2                !
 ! D48   D(10,12,20,21)         45.7743         estimate D2E/DX2                !
 ! D49   D(10,12,20,22)        164.4806         estimate D2E/DX2                !
 ! D50   D(10,12,20,30)        -72.3146         estimate D2E/DX2                !
 ! D51   D(13,12,20,21)        164.9911         estimate D2E/DX2                !
 ! D52   D(13,12,20,22)        -76.3027         estimate D2E/DX2                !
 ! D53   D(13,12,20,30)         46.9021         estimate D2E/DX2                !
 ! D54   D(16,12,20,21)        -78.6325         estimate D2E/DX2                !
 ! D55   D(16,12,20,22)         40.0737         estimate D2E/DX2                !
 ! D56   D(16,12,20,30)        163.2785         estimate D2E/DX2                !
 ! D57   D(12,16,17,6)          39.4424         estimate D2E/DX2                !
 ! D58   D(10,18,25,26)        -60.7241         estimate D2E/DX2                !
 ! D59   D(10,18,25,27)         58.6734         estimate D2E/DX2                !
 ! D60   D(10,18,25,34)        178.3878         estimate D2E/DX2                !
 ! D61   D(19,18,25,26)         58.2876         estimate D2E/DX2                !
 ! D62   D(19,18,25,27)        177.685          estimate D2E/DX2                !
 ! D63   D(19,18,25,34)        -62.6006         estimate D2E/DX2                !
 ! D64   D(28,18,25,26)        179.2844         estimate D2E/DX2                !
 ! D65   D(28,18,25,27)        -61.3182         estimate D2E/DX2                !
 ! D66   D(28,18,25,34)         58.3962         estimate D2E/DX2                !
 ! D67   D(10,18,28,29)       -168.1845         estimate D2E/DX2                !
 ! D68   D(19,18,28,29)         73.0897         estimate D2E/DX2                !
 ! D69   D(25,18,28,29)        -46.7455         estimate D2E/DX2                !
 ! D70   D(12,20,22,23)        164.7517         estimate D2E/DX2                !
 ! D71   D(12,20,22,24)        -79.5209         estimate D2E/DX2                !
 ! D72   D(12,20,22,32)         45.6184         estimate D2E/DX2                !
 ! D73   D(21,20,22,23)        -75.4757         estimate D2E/DX2                !
 ! D74   D(21,20,22,24)         40.2516         estimate D2E/DX2                !
 ! D75   D(21,20,22,32)        165.391          estimate D2E/DX2                !
 ! D76   D(30,20,22,23)         46.1858         estimate D2E/DX2                !
 ! D77   D(30,20,22,24)        161.9132         estimate D2E/DX2                !
 ! D78   D(30,20,22,32)        -72.9474         estimate D2E/DX2                !
 ! D79   D(12,20,30,31)        170.8406         estimate D2E/DX2                !
 ! D80   D(21,20,30,31)         53.4235         estimate D2E/DX2                !
 ! D81   D(22,20,30,31)        -66.6479         estimate D2E/DX2                !
 ! D82   D(20,22,32,33)        -67.7564         estimate D2E/DX2                !
 ! D83   D(23,22,32,33)        172.1076         estimate D2E/DX2                !
 ! D84   D(24,22,32,33)         56.0644         estimate D2E/DX2                !
 ! D85   D(18,25,34,35)       -167.7182         estimate D2E/DX2                !
 ! D86   D(26,25,34,35)         72.0367         estimate D2E/DX2                !
 ! D87   D(27,25,34,35)        -49.4826         estimate D2E/DX2                !
 --------------------------------------------------------------------------------
 Trust Radius=3.00D-01 FncErr=1.00D-07 GrdErr=1.00D-06 EigMax=2.50D+02 EigMin=1.00D-04
 Number of steps in this run=    190 maximum allowed number of steps=    210.
 GradGradGradGradGradGradGradGradGradGradGradGradGradGradGradGradGradGrad

                          Input orientation:                          
 ---------------------------------------------------------------------
 Center     Atomic      Atomic             Coordinates (Angstroms)
 Number     Number       Type             X           Y           Z
 ---------------------------------------------------------------------
      1         14           0        2.427602   -1.290295    0.157973
      2          8           0        1.986957   -2.684190   -0.552815
      3          1           0        1.037625   -2.774619   -0.642370
      4          8           0        4.020297   -1.450782    0.516988
      5          1           0        4.393741   -2.323561    0.419215
      6          8           0        2.349239    0.032274   -0.832988
      7          1           0        3.203928    0.308949   -1.158325
      8          8           0        1.598368   -0.976163    1.531027
      9          1           0        2.112789   -1.008206    2.333593
     10          6           0       -1.119935   -0.195029    0.024927
     11          1           0       -0.966647   -0.300966    1.098095
     12          6           0       -0.789976    1.259702   -0.394249
     13          1           0       -1.724568    1.808460   -0.500521
     14          8           0       -0.223901   -1.095423   -0.611298
     15          1           0       -0.163651   -0.800216   -1.525904
     16          8           0       -0.160045    1.270124   -1.667882
     17          1           0        0.759542    1.002329   -1.535187
     18          6           0       -2.544056   -0.616616   -0.321158
     19          1           0       -2.664157   -0.581005   -1.414855
     20          6           0        0.049357    2.002857    0.648817
     21          1           0        0.866752    1.352862    0.981592
     22          6           0        0.681502    3.273201    0.077289
     23          1           0        1.028455    3.890155    0.909354
     24          1           0        1.569727    2.991852   -0.501775
     25          6           0       -2.813122   -2.036692    0.144925
     26          1           0       -2.128793   -2.730508   -0.347794
     27          1           0       -2.653973   -2.085559    1.228089
     28          8           0       -3.432911    0.279227    0.297571
     29          1           0       -4.309870   -0.102334    0.228051
     30          8           0       -0.836853    2.257968    1.721114
     31          1           0       -0.337109    2.593536    2.463411
     32          8           0       -0.184832    4.076030   -0.683468
     33          1           0       -0.396144    3.587601   -1.481136
     34          8           0       -4.161799   -2.328880   -0.181961
     35          1           0       -4.428449   -3.132465    0.259317
 ---------------------------------------------------------------------
                    Distance matrix (angstroms):
                    1          2          3          4          5
     1  Si   0.000000
     2  O    1.625525   0.000000
     3  H    2.185361   0.957825   0.000000
     4  O    1.640526   2.607728   3.463089   0.000000
     5  H    2.236423   2.620592   3.548793   0.954339   0.000000
     6  O    1.654489   2.754800   3.104080   2.610426   3.361244
     7  H    2.211991   3.287331   3.803613   2.563159   3.291564
     8  O    1.634498   2.722270   2.876201   2.668198   3.296319
     9  H    2.216304   3.340076   3.623886   2.671051   3.255418
    10  C    3.715148   4.022746   3.428503   5.314229   5.923406
    11  H    3.658350   4.138724   3.628400   5.150667   5.769361
    12  C    4.142492   4.826053   4.435926   5.596052   6.353929
    13  H    5.222683   5.827697   5.352985   6.682923   7.439974
    14  O    2.767710   2.723140   2.100503   4.405965   4.888036
    15  H    3.128931   3.020161   2.474260   4.701283   5.184003
    16  O    4.072519   4.635687   4.341202   5.445388   6.165023
    17  H    3.302323   4.007746   3.890988   4.567461   5.299871
    18  C    5.039920   4.985841   4.193876   6.670011   7.182955
    19  H    5.376141   5.176810   4.371712   7.012165   7.497616
    20  C    4.091678   5.212161   5.046594   5.264349   6.135494
    21  H    3.178188   4.461732   4.438755   4.245129   5.125622
    22  C    4.886806   6.131211   6.100890   5.801457   6.724684
    23  H    5.418417   6.802843   6.843036   6.134385   7.083477
    24  H    4.416786   5.691585   5.792675   5.174956   6.089080
    25  C    5.293625   4.893552   3.999078   6.868576   7.217784
    26  H    4.805283   4.121114   3.180397   6.340099   6.580073
    27  H    5.253570   5.006816   4.195392   6.741994   7.097971
    28  O    6.068649   6.235380   5.495012   7.654501   8.248987
    29  H    6.841761   6.850238   6.041063   8.443547   8.984611
    30  O    5.068555   6.129403   5.867423   6.228696   7.074211
    31  H    5.295547   6.507941   6.352390   6.255562   7.123028
    32  O    6.027460   7.101712   6.958986   7.047684   7.945691
    33  H    5.869761   6.773205   6.575490   6.991620   7.841949
    34  O    6.679403   6.170168   5.238766   8.258709   8.576637
    35  H    7.099950   6.482125   5.551492   8.618339   8.860639
                    6          7          8          9         10
     6  O    0.000000
     7  H    0.955451   0.000000
     8  O    2.677558   3.385550   0.000000
     9  H    3.341518   3.888312   0.953818   0.000000
    10  C    3.580901   4.511083   3.204322   4.054837   0.000000
    11  H    3.851653   4.780912   2.687494   3.392576   1.089224
    12  C    3.399080   4.176004   3.796046   4.583729   1.549459
    13  H    4.456599   5.193391   4.787820   5.539957   2.157694
    14  O    2.818137   3.744531   2.815039   3.760334   1.420693
    15  H    2.736382   3.564541   3.532774   4.485661   1.919846
    16  O    2.919902   3.535508   4.286122   5.135014   2.435911
    17  H    1.990283   2.568623   3.744293   4.565193   2.720304
    18  C    4.962597   5.881908   4.551872   5.374686   1.525002
    19  H    5.084173   5.940728   5.196488   6.087083   2.146292
    20  C    3.371706   4.010786   3.471641   4.020289   2.566551
    21  H    2.689688   3.336374   2.502299   2.992517   2.694086
    22  C    3.756802   4.083646   4.583786   5.046775   3.908521
    23  H    4.434351   4.672581   4.938859   5.215187   4.699630
    24  H    3.078383   3.209305   4.458503   4.933021   4.203321
    25  C    5.646849   6.588276   4.744180   5.487499   2.504597
    26  H    5.284047   6.191379   4.527629   5.305391   2.754155
    27  H    5.810799   6.763405   4.405103   5.010474   2.715691
    28  O    5.896813   6.794715   5.330214   6.046293   2.376786
    29  H    6.744454   7.651690   6.112986   6.819418   3.197739
    30  O    4.650627   5.330831   4.052905   4.443356   2.995727
    31  H    4.964149   5.556550   4.166313   4.357912   3.786174
    32  O    4.774498   5.089212   5.797279   6.342805   4.429242
    33  H    4.538455   4.879988   5.820580   6.478298   4.135262
    34  O    6.956472   7.884501   6.159845   6.887862   3.721432
    35  H    7.559481   8.491538   6.526056   7.183515   4.430546
                   11         12         13         14         15
    11  H    0.000000
    12  C    2.166561   0.000000
    13  H    2.753125   1.088986   0.000000
    14  O    2.026045   2.431906   3.270598   0.000000
    15  H    2.789162   2.432322   3.208280   0.962955   0.000000
    16  O    3.281701   1.420937   2.024912   2.591575   2.075206
    17  H    3.407709   1.941388   2.809125   2.494252   2.025226
    18  C    2.145258   2.569574   2.566072   2.386746   2.674219
    19  H    3.045469   2.818225   2.725505   2.620149   2.512552
    20  C    2.557678   1.531256   2.122635   3.355875   3.554153
    21  H    2.471856   2.155543   3.019796   3.117839   3.461938
    22  C    4.066093   2.538065   2.875501   4.514286   4.458390
    23  H    4.645595   3.453311   3.728316   5.360668   5.417673
    24  H    4.453698   2.929181   3.500400   4.464853   4.293393
    25  C    2.707535   3.905130   4.048054   2.856908   3.367527
    26  H    3.056772   4.209081   4.559491   2.524193   2.995956
    27  H    2.459419   4.158995   4.360650   3.204522   3.929159
    28  O    2.657051   2.902594   2.427744   3.607416   3.895936
    29  H    3.460285   3.825187   3.296322   4.287875   4.555714
    30  O    2.636881   2.339550   2.434288   4.130507   4.510966
    31  H    3.261679   3.185973   3.365454   4.803652   5.240446
    32  O    4.789916   2.895091   2.747022   5.172104   4.948527
    33  H    4.700942   2.599142   2.427274   4.766235   4.394200
    34  O    3.994994   4.928709   4.812396   4.148830   4.486444
    35  H    4.550276   5.740798   5.683403   4.752445   5.178311
                   16         17         18         19         20
    16  O    0.000000
    17  H    0.966935   0.000000
    18  C    3.325201   3.874095   0.000000
    19  H    3.124304   3.774009   1.100848   0.000000
    20  C    2.438820   2.505053   3.811598   4.277645   0.000000
    21  H    2.842687   2.543333   4.148447   4.685095   1.096069
    22  C    2.786780   2.786221   5.068891   5.317408   1.529714
    23  H    3.862543   3.793103   5.881155   6.247288   2.142057
    24  H    2.704859   2.383808   5.475114   5.614695   2.147905
    25  C    4.610870   4.982204   1.518633   2.138721   4.976510
    26  H    4.650124   4.866873   2.154459   2.458780   5.304933
    27  H    5.085955   5.368690   2.137766   3.041207   4.935453
    28  O    3.944177   4.632336   1.405498   2.064797   3.901341
    29  H    4.764373   5.479802   1.919431   2.374160   4.859191
    30  O    3.594329   3.837786   3.917735   4.607940   1.414309
    31  H    4.341699   4.441100   4.788477   5.525741   1.947051
    32  O    2.973684   3.326395   5.264801   5.326345   2.475454
    33  H    2.336946   2.832342   4.861534   4.746109   2.691948
    34  O    5.583442   6.094897   2.359728   2.611135   6.098194
    35  H    6.427765   6.872555   3.196464   3.524986   6.824514
                   21         22         23         24         25
    21  H    0.000000
    22  C    2.130677   0.000000
    23  H    2.543467   1.092401   0.000000
    24  H    2.319664   1.097003   1.758183   0.000000
    25  C    5.072530   6.357038   7.104195   6.701779   0.000000
    26  H    5.235883   6.642513   7.441896   6.815289   1.091998
    27  H    4.927373   6.416077   7.026452   6.827311   1.095883
    28  O    4.484159   5.093211   5.772076   5.746623   2.402274
    29  H    5.429810   6.027500   6.700885   6.684033   2.447224
    30  O    2.066006   2.457287   2.608134   3.357298   4.983384
    31  H    2.276915   2.681994   2.441532   3.547817   5.739776
    32  O    3.360639   1.404927   2.010895   2.070491   6.705186
    33  H    3.557245   1.920640   2.799190   2.275679   6.333919
    34  O    6.339985   7.409999   8.173500   7.827059   1.418153
    35  H    6.977033   8.196175   8.917261   8.606081   1.955271
                   26         27         28         29         30
    26  H    0.000000
    27  H    1.781904   0.000000
    28  O    3.343011   2.657973   0.000000
    29  H    3.463523   2.770425   0.958895   0.000000
    30  O    5.552872   4.734050   3.561096   4.456693   0.000000
    31  H    6.281596   5.365427   4.430675   5.295978   0.955696
    32  O    7.086651   6.907669   5.091971   5.941846   3.084233
    33  H    6.648687   6.680003   4.830227   5.643952   3.495219
    34  O    2.078923   2.078698   2.750173   2.268820   5.976298
    35  H    2.412171   2.276685   3.554181   3.032611   6.640270
                   31         32         33         34         35
    31  H    0.000000
    32  O    3.481928   0.000000
    33  H    4.068304   0.958900   0.000000
    34  O    6.771737   7.555835   7.132514   0.000000
    35  H    7.374563   8.417810   8.027948   0.954766   0.000000
 Stoichiometry    C6H18O10Si
 Framework group  C1[X(C6H18O10Si)]
 Deg. of freedom    99
 Full point group                 C1      NOp   1
 Largest Abelian subgroup         C1      NOp   1
 Largest concise Abelian subgroup C1      NOp   1
                         Standard orientation:                         
 ---------------------------------------------------------------------
 Center     Atomic      Atomic             Coordinates (Angstroms)
 Number     Number       Type             X           Y           Z
 ---------------------------------------------------------------------
      1         14           0        2.588458   -0.982619    0.096788
      2          8           0        2.308884   -2.418655   -0.611711
      3          1           0        1.376394   -2.626031   -0.681607
      4          8           0        4.196157   -0.945009    0.421157
      5          1           0        4.672804   -1.764419    0.310983
      6          8           0        2.325154    0.322464   -0.885435
      7          1           0        3.131660    0.703933   -1.227364
      8          8           0        1.756586   -0.777318    1.488703
      9          1           0        2.288267   -0.747251    2.280018
     10          6           0       -1.069608   -0.335971    0.044570
     11          1           0       -0.881155   -0.424743    1.113689
     12          6           0       -0.931858    1.149517   -0.373968
     13          1           0       -1.929399    1.578252   -0.457582
     14          8           0       -0.082767   -1.116547   -0.615138
     15          1           0       -0.079434   -0.813854   -1.529275
     16          8           0       -0.335820    1.241263   -1.660585
     17          1           0        0.612545    1.089387   -1.548782
     18          6           0       -2.437571   -0.930250   -0.273454
     19          1           0       -2.584820   -0.907088   -1.364163
     20          6           0       -0.168832    1.988520    0.654920
     21          1           0        0.729912    1.444214    0.966942
     22          6           0        0.288277    3.328951    0.076713
     23          1           0        0.573934    3.982123    0.904424
     24          1           0        1.191797    3.161515   -0.522480
     25          6           0       -2.518197   -2.373909    0.190870
     26          1           0       -1.763900   -2.976151   -0.319815
     27          1           0       -2.330795   -2.405350    1.270153
     28          8           0       -3.417104   -0.153255    0.368587
     29          1           0       -4.241241   -0.640574    0.315682
     30          8           0       -1.056416    2.128936    1.747050
     31          1           0       -0.586214    2.522097    2.480323
     32          8           0       -0.687248    4.019904   -0.661363
     33          1           0       -0.853547    3.511017   -1.456893
     34          8           0       -3.826958   -2.830471   -0.108888
     35          1           0       -3.982219   -3.662049    0.333775
 ---------------------------------------------------------------------
 Rotational constants (GHZ):           0.4147325           0.3137911           0.2082929
 Standard basis: def2TZVPP (5D, 7F)
 There are   894 symmetry adapted cartesian basis functions of A   symmetry.
 There are   790 symmetry adapted basis functions of A   symmetry.
   790 basis functions,  1191 primitive gaussians,   894 cartesian basis functions
    74 alpha electrons       74 beta electrons
       nuclear repulsion energy      1642.5806153529 Hartrees.
 NAtoms=   35 NActive=   35 NUniq=   35 SFac= 1.00D+00 NAtFMM=   60 NAOKFM=F Big=F
 Integral buffers will be    131072 words long.
 Raffenetti 2 integral format.
 Two-electron integral symmetry is turned on.
 Nuclear repulsion after empirical dispersion term =     1642.5529827249 Hartrees.
 One-electron integrals computed using PRISM.
   1 Symmetry operations used in ECPInt.
 ECPInt:  NShTT=   44551 NPrTT=  121227 LenC2=   39052 LenP2D=   78165.
 LDataN:  DoStor=T MaxTD1= 6 Len=  172
 NBasis=   790 RedAO= T EigKep=  4.04D-05  NBF=   790
 NBsUse=   790 1.00D-06 EigRej= -1.00D+00 NBFU=   790
 ExpMin= 7.01D-02 ExpMax= 4.48D+04 ExpMxC= 1.53D+03 IAcc=3 IRadAn=         5 AccDes= 0.00D+00
 Harris functional with IExCor= 4639 and IRadAn=       5 diagonalized for initial guess.
 HarFok:  IExCor= 4639 AccDes= 0.00D+00 IRadAn=         5 IDoV= 1 UseB2=F ITyADJ=14
 ICtDFT=  3500011 ScaDFX=  1.000000  1.000000  1.000000  1.000000
 FoFCou: FMM=F IPFlag=           0 FMFlag=      100000 FMFlg1=           0
         NFxFlg=           0 DoJE=T BraDBF=F KetDBF=T FulRan=T
         wScrn=  0.000000 ICntrl=       500 IOpCl=  0 I1Cent=   200000004 NGrid=           0
         NMat0=    1 NMatS0=      1 NMatT0=    0 NMatD0=    1 NMtDS0=    0 NMtDT0=    0
 Petite list used in FoFCou.
 Requested convergence on RMS density matrix=1.00D-08 within 128 cycles.
 Requested convergence on MAX density matrix=1.00D-06.
 Requested convergence on             energy=1.00D-06.
 No special actions if energy rises.
 Integral accuracy reduced to 1.0D-05 until final iterations.
 Initial convergence to 1.0D-05 achieved.  Increase integral accuracy.
 SCF Done:  E(RwB97XD) =  -1281.55230502     A.U. after   14 cycles
            NFock= 14  Conv=0.51D-08     -V/T= 2.0037

 **********************************************************************

            Population analysis using the SCF Density.

 **********************************************************************

 Orbital symmetries:
       Occupied  (A) (A) (A) (A) (A) (A) (A) (A) (A) (A) (A) (A)
                 (A) (A) (A) (A) (A) (A) (A) (A) (A) (A) (A) (A)
                 (A) (A) (A) (A) (A) (A) (A) (A) (A) (A) (A) (A)
                 (A) (A) (A) (A) (A) (A) (A) (A) (A) (A) (A) (A)
                 (A) (A) (A) (A) (A) (A) (A) (A) (A) (A) (A) (A)
                 (A) (A) (A) (A) (A) (A) (A) (A) (A) (A) (A) (A)
                 (A) (A)
       Virtual   (A) (A) (A) (A) (A) (A) (A) (A) (A) (A) (A) (A)
                 (A) (A) (A) (A) (A) (A) (A) (A) (A) (A) (A) (A)
                 (A) (A) (A) (A) (A) (A) (A) (A) (A) (A) (A) (A)
                 (A) (A) (A) (A) (A) (A) (A) (A) (A) (A) (A) (A)
                 (A) (A) (A) (A) (A) (A) (A) (A) (A) (A) (A) (A)
                 (A) (A) (A) (A) (A) (A) (A) (A) (A) (A) (A) (A)
                 (A) (A) (A) (A) (A) (A) (A) (A) (A) (A) (A) (A)
                 (A) (A) (A) (A) (A) (A) (A) (A) (A) (A) (A) (A)
                 (A) (A) (A) (A) (A) (A) (A) (A) (A) (A) (A) (A)
                 (A) (A) (A) (A) (A) (A) (A) (A) (A) (A) (A) (A)
                 (A) (A) (A) (A) (A) (A) (A) (A) (A) (A) (A) (A)
                 (A) (A) (A) (A) (A) (A) (A) (A) (A) (A) (A) (A)
                 (A) (A) (A) (A) (A) (A) (A) (A) (A) (A) (A) (A)
                 (A) (A) (A) (A) (A) (A) (A) (A) (A) (A) (A) (A)
                 (A) (A) (A) (A) (A) (A) (A) (A) (A) (A) (A) (A)
                 (A) (A) (A) (A) (A) (A) (A) (A) (A) (A) (A) (A)
                 (A) (A) (A) (A) (A) (A) (A) (A) (A) (A) (A) (A)
                 (A) (A) (A) (A) (A) (A) (A) (A) (A) (A) (A) (A)
                 (A) (A) (A) (A) (A) (A) (A) (A) (A) (A) (A) (A)
                 (A) (A) (A) (A) (A) (A) (A) (A) (A) (A) (A) (A)
                 (A) (A) (A) (A) (A) (A) (A) (A) (A) (A) (A) (A)
                 (A) (A) (A) (A) (A) (A) (A) (A) (A) (A) (A) (A)
                 (A) (A) (A) (A) (A) (A) (A) (A) (A) (A) (A) (A)
                 (A) (A) (A) (A) (A) (A) (A) (A) (A) (A) (A) (A)
                 (A) (A) (A) (A) (A) (A) (A) (A) (A) (A) (A) (A)
                 (A) (A) (A) (A) (A) (A) (A) (A) (A) (A) (A) (A)
                 (A) (A) (A) (A) (A) (A) (A) (A) (A) (A) (A) (A)
                 (A) (A) (A) (A) (A) (A) (A) (A) (A) (A) (A) (A)
                 (A) (A) (A) (A) (A) (A) (A) (A) (A) (A) (A) (A)
                 (A) (A) (A) (A) (A) (A) (A) (A) (A) (A) (A) (A)
                 (A) (A) (A) (A) (A) (A) (A) (A) (A) (A) (A) (A)
                 (A) (A) (A) (A) (A) (A) (A) (A) (A) (A) (A) (A)
                 (A) (A) (A) (A) (A) (A) (A) (A) (A) (A) (A) (A)
                 (A) (A) (A) (A) (A) (A) (A) (A) (A) (A) (A) (A)
                 (A) (A) (A) (A) (A) (A) (A) (A) (A) (A) (A) (A)
                 (A) (A) (A) (A) (A) (A) (A) (A) (A) (A) (A) (A)
                 (A) (A) (A) (A) (A) (A) (A) (A) (A) (A) (A) (A)
                 (A) (A) (A) (A) (A) (A) (A) (A) (A) (A) (A) (A)
                 (A) (A) (A) (A) (A) (A) (A) (A) (A) (A) (A) (A)
                 (A) (A) (A) (A) (A) (A) (A) (A) (A) (A) (A) (A)
                 (A) (A) (A) (A) (A) (A) (A) (A) (A) (A) (A) (A)
                 (A) (A) (A) (A) (A) (A) (A) (A) (A) (A) (A) (A)
                 (A) (A) (A) (A) (A) (A) (A) (A) (A) (A) (A) (A)
                 (A) (A) (A) (A) (A) (A) (A) (A) (A) (A) (A) (A)
                 (A) (A) (A) (A) (A) (A) (A) (A) (A) (A) (A) (A)
                 (A) (A) (A) (A) (A) (A) (A) (A) (A) (A) (A) (A)
                 (A) (A) (A) (A) (A) (A) (A) (A) (A) (A) (A) (A)
                 (A) (A) (A) (A) (A) (A) (A) (A) (A) (A) (A) (A)
                 (A) (A) (A) (A) (A) (A) (A) (A) (A) (A) (A) (A)
                 (A) (A) (A) (A) (A) (A) (A) (A) (A) (A) (A) (A)
                 (A) (A) (A) (A) (A) (A) (A) (A) (A) (A) (A) (A)
                 (A) (A) (A) (A) (A) (A) (A) (A) (A) (A) (A) (A)
                 (A) (A) (A) (A) (A) (A) (A) (A) (A) (A) (A) (A)
                 (A) (A) (A) (A) (A) (A) (A) (A) (A) (A) (A) (A)
                 (A) (A) (A) (A) (A) (A) (A) (A) (A) (A) (A) (A)
                 (A) (A) (A) (A) (A) (A) (A) (A) (A) (A) (A) (A)
                 (A) (A) (A) (A) (A) (A) (A) (A) (A) (A) (A) (A)
                 (A) (A) (A) (A) (A) (A) (A) (A) (A) (A) (A) (A)
                 (A) (A) (A) (A) (A) (A) (A) (A) (A) (A) (A) (A)
                 (A) (A) (A) (A) (A) (A) (A) (A)
 The electronic state is 1-A.
 Alpha  occ. eigenvalues --  -66.32063 -19.26979 -19.26869 -19.26074 -19.25869
 Alpha  occ. eigenvalues --  -19.25795 -19.25745 -19.25079 -19.24363 -19.24228
 Alpha  occ. eigenvalues --  -19.23414 -10.33526 -10.33132 -10.33131 -10.33039
 Alpha  occ. eigenvalues --  -10.32580 -10.32031  -5.43713  -3.78319  -3.78156
 Alpha  occ. eigenvalues --   -3.78143  -1.16595  -1.14809  -1.14491  -1.13343
 Alpha  occ. eigenvalues --   -1.12162  -1.11753  -1.11386  -1.10988  -1.10723
 Alpha  occ. eigenvalues --   -1.10234  -0.87824  -0.84720  -0.80469  -0.74662
 Alpha  occ. eigenvalues --   -0.69931  -0.68970  -0.68578  -0.63645  -0.63150
 Alpha  occ. eigenvalues --   -0.62679  -0.61848  -0.61716  -0.60474  -0.59718
 Alpha  occ. eigenvalues --   -0.57582  -0.56932  -0.56125  -0.54421  -0.54041
 Alpha  occ. eigenvalues --   -0.52055  -0.50930  -0.50824  -0.49613  -0.49051
 Alpha  occ. eigenvalues --   -0.48409  -0.47615  -0.46593  -0.45591  -0.45147
 Alpha  occ. eigenvalues --   -0.44805  -0.44309  -0.43143  -0.43049  -0.42033
 Alpha  occ. eigenvalues --   -0.41542  -0.40557  -0.40113  -0.39398  -0.37777
 Alpha  occ. eigenvalues --   -0.37329  -0.36064  -0.35493  -0.33460
 Alpha virt. eigenvalues --    0.07263   0.10000   0.10539   0.11752   0.12077
 Alpha virt. eigenvalues --    0.13345   0.13924   0.14730   0.15847   0.16631
 Alpha virt. eigenvalues --    0.17337   0.18351   0.18970   0.19549   0.20521
 Alpha virt. eigenvalues --    0.21134   0.21330   0.21752   0.22772   0.23230
 Alpha virt. eigenvalues --    0.23713   0.24291   0.25128   0.25148   0.25978
 Alpha virt. eigenvalues --    0.27397   0.27706   0.28093   0.29761   0.29972
 Alpha virt. eigenvalues --    0.30391   0.31253   0.32842   0.33392   0.33943
 Alpha virt. eigenvalues --    0.34801   0.36164   0.36818   0.37817   0.38323
 Alpha virt. eigenvalues --    0.39045   0.39232   0.40021   0.40398   0.40984
 Alpha virt. eigenvalues --    0.41577   0.42148   0.42677   0.42916   0.43586
 Alpha virt. eigenvalues --    0.44171   0.44848   0.45271   0.46053   0.46442
 Alpha virt. eigenvalues --    0.47031   0.47280   0.48070   0.48960   0.49568
 Alpha virt. eigenvalues --    0.49858   0.50405   0.51094   0.51309   0.51577
 Alpha virt. eigenvalues --    0.52054   0.52602   0.53142   0.53369   0.53883
 Alpha virt. eigenvalues --    0.53960   0.54221   0.55565   0.56217   0.57034
 Alpha virt. eigenvalues --    0.57318   0.57950   0.58474   0.59011   0.59076
 Alpha virt. eigenvalues --    0.59522   0.60587   0.60712   0.61954   0.62427
 Alpha virt. eigenvalues --    0.63282   0.63695   0.64007   0.65357   0.66023
 Alpha virt. eigenvalues --    0.66506   0.66999   0.67960   0.68278   0.69364
 Alpha virt. eigenvalues --    0.70001   0.70636   0.71339   0.72531   0.72774
 Alpha virt. eigenvalues --    0.73438   0.74150   0.74806   0.75331   0.76570
 Alpha virt. eigenvalues --    0.77056   0.78326   0.78624   0.78974   0.80110
 Alpha virt. eigenvalues --    0.80745   0.82363   0.83101   0.83317   0.84120
 Alpha virt. eigenvalues --    0.85049   0.86395   0.86878   0.87490   0.88487
 Alpha virt. eigenvalues --    0.89144   0.90533   0.91430   0.91727   0.92753
 Alpha virt. eigenvalues --    0.93699   0.94380   0.94933   0.95575   0.96353
 Alpha virt. eigenvalues --    0.97042   0.97915   0.98397   0.99199   0.99652
 Alpha virt. eigenvalues --    1.01012   1.01262   1.02814   1.03387   1.04487
 Alpha virt. eigenvalues --    1.05922   1.06162   1.07083   1.07868   1.08487
 Alpha virt. eigenvalues --    1.09222   1.09974   1.10216   1.10902   1.11590
 Alpha virt. eigenvalues --    1.12166   1.13230   1.13561   1.14301   1.15813
 Alpha virt. eigenvalues --    1.16790   1.17359   1.18821   1.19964   1.20166
 Alpha virt. eigenvalues --    1.20919   1.21131   1.21943   1.22479   1.23343
 Alpha virt. eigenvalues --    1.24941   1.25344   1.26483   1.27170   1.27751
 Alpha virt. eigenvalues --    1.28428   1.28710   1.29308   1.31078   1.31617
 Alpha virt. eigenvalues --    1.31975   1.32469   1.33717   1.34732   1.35374
 Alpha virt. eigenvalues --    1.36804   1.37415   1.37550   1.38687   1.39165
 Alpha virt. eigenvalues --    1.39898   1.40513   1.41340   1.41629   1.43099
 Alpha virt. eigenvalues --    1.43680   1.45143   1.45929   1.47446   1.48639
 Alpha virt. eigenvalues --    1.48983   1.50195   1.50705   1.50812   1.51825
 Alpha virt. eigenvalues --    1.52091   1.53992   1.54954   1.55483   1.56511
 Alpha virt. eigenvalues --    1.56948   1.58308   1.59362   1.60616   1.61578
 Alpha virt. eigenvalues --    1.61920   1.63211   1.64068   1.65793   1.66768
 Alpha virt. eigenvalues --    1.67021   1.67799   1.71599   1.72557   1.72970
 Alpha virt. eigenvalues --    1.74546   1.75982   1.76917   1.78424   1.80257
 Alpha virt. eigenvalues --    1.80923   1.84054   1.84693   1.85946   1.86288
 Alpha virt. eigenvalues --    1.88441   1.88904   1.90927   1.91611   1.92236
 Alpha virt. eigenvalues --    1.93634   1.94726   1.96464   1.96812   1.97620
 Alpha virt. eigenvalues --    1.98534   1.98568   1.99737   2.00082   2.00663
 Alpha virt. eigenvalues --    2.01370   2.03271   2.03864   2.05335   2.05883
 Alpha virt. eigenvalues --    2.07103   2.07746   2.09054   2.09158   2.09706
 Alpha virt. eigenvalues --    2.11749   2.11817   2.12880   2.13726   2.14393
 Alpha virt. eigenvalues --    2.15336   2.16029   2.17412   2.18617   2.19015
 Alpha virt. eigenvalues --    2.19263   2.20468   2.21472   2.22394   2.22738
 Alpha virt. eigenvalues --    2.24113   2.24959   2.26196   2.26722   2.27325
 Alpha virt. eigenvalues --    2.27879   2.30194   2.31358   2.32089   2.33131
 Alpha virt. eigenvalues --    2.33871   2.34553   2.35932   2.36635   2.39149
 Alpha virt. eigenvalues --    2.40108   2.41794   2.42909   2.45714   2.47632
 Alpha virt. eigenvalues --    2.48685   2.51602   2.54740   2.56340   2.58464
 Alpha virt. eigenvalues --    2.58671   2.60185   2.61321   2.62680   2.65435
 Alpha virt. eigenvalues --    2.65805   2.67806   2.69266   2.70278   2.72067
 Alpha virt. eigenvalues --    2.73148   2.75786   2.76067   2.77135   2.77804
 Alpha virt. eigenvalues --    2.78543   2.79606   2.80718   2.82898   2.83655
 Alpha virt. eigenvalues --    2.84235   2.85307   2.86023   2.87377   2.87733
 Alpha virt. eigenvalues --    2.88576   2.89881   2.90937   2.93392   2.94403
 Alpha virt. eigenvalues --    2.94757   2.95150   2.96493   2.96803   2.99110
 Alpha virt. eigenvalues --    3.00944   3.02103   3.02957   3.03582   3.04317
 Alpha virt. eigenvalues --    3.04854   3.05668   3.07136   3.08417   3.09092
 Alpha virt. eigenvalues --    3.10252   3.10466   3.11288   3.12821   3.12961
 Alpha virt. eigenvalues --    3.14812   3.17146   3.17753   3.18980   3.19239
 Alpha virt. eigenvalues --    3.20349   3.21657   3.22090   3.23143   3.23703
 Alpha virt. eigenvalues --    3.25668   3.25812   3.26752   3.27206   3.29100
 Alpha virt. eigenvalues --    3.29283   3.30181   3.30761   3.31160   3.31713
 Alpha virt. eigenvalues --    3.33525   3.33656   3.34336   3.35613   3.36896
 Alpha virt. eigenvalues --    3.37061   3.37721   3.38539   3.38872   3.39322
 Alpha virt. eigenvalues --    3.39751   3.41157   3.41646   3.42939   3.43047
 Alpha virt. eigenvalues --    3.43593   3.44340   3.44771   3.45633   3.45654
 Alpha virt. eigenvalues --    3.46246   3.47096   3.47581   3.48660   3.48995
 Alpha virt. eigenvalues --    3.49881   3.51187   3.51870   3.52319   3.54372
 Alpha virt. eigenvalues --    3.54674   3.55009   3.56926   3.57754   3.58114
 Alpha virt. eigenvalues --    3.59105   3.60347   3.61206   3.62096   3.63048
 Alpha virt. eigenvalues --    3.63738   3.65544   3.66868   3.67831   3.68307
 Alpha virt. eigenvalues --    3.69824   3.70151   3.70917   3.71937   3.73056
 Alpha virt. eigenvalues --    3.73841   3.74963   3.75831   3.76033   3.77806
 Alpha virt. eigenvalues --    3.78914   3.79600   3.80888   3.81376   3.82389
 Alpha virt. eigenvalues --    3.84560   3.85463   3.85685   3.86111   3.86834
 Alpha virt. eigenvalues --    3.87658   3.88501   3.89934   3.90640   3.91509
 Alpha virt. eigenvalues --    3.93449   3.93738   3.94170   3.96313   3.96601
 Alpha virt. eigenvalues --    3.97275   3.98194   3.99716   4.00788   4.00824
 Alpha virt. eigenvalues --    4.02771   4.03230   4.03918   4.05188   4.05284
 Alpha virt. eigenvalues --    4.05876   4.06332   4.07550   4.08885   4.09398
 Alpha virt. eigenvalues --    4.10277   4.10766   4.12022   4.13100   4.13398
 Alpha virt. eigenvalues --    4.14605   4.15059   4.15290   4.16126   4.16474
 Alpha virt. eigenvalues --    4.17550   4.17594   4.18077   4.18400   4.18948
 Alpha virt. eigenvalues --    4.20792   4.21626   4.22692   4.23252   4.24222
 Alpha virt. eigenvalues --    4.24529   4.26442   4.28716   4.29041   4.30022
 Alpha virt. eigenvalues --    4.30161   4.32055   4.32542   4.33659   4.34110
 Alpha virt. eigenvalues --    4.35757   4.36208   4.36616   4.37635   4.38276
 Alpha virt. eigenvalues --    4.39399   4.40480   4.40486   4.42827   4.43242
 Alpha virt. eigenvalues --    4.44996   4.45551   4.46363   4.47581   4.50361
 Alpha virt. eigenvalues --    4.50686   4.51506   4.52229   4.54052   4.55710
 Alpha virt. eigenvalues --    4.57431   4.58818   4.60266   4.61024   4.61462
 Alpha virt. eigenvalues --    4.62041   4.64105   4.66157   4.68692   4.69594
 Alpha virt. eigenvalues --    4.70588   4.71752   4.72210   4.74338   4.76441
 Alpha virt. eigenvalues --    4.78280   4.79271   4.80745   4.82030   4.84187
 Alpha virt. eigenvalues --    4.89737   4.90201   4.91173   4.92114   4.92630
 Alpha virt. eigenvalues --    4.93063   4.94345   4.96208   4.97662   4.98753
 Alpha virt. eigenvalues --    4.99364   5.00322   5.01535   5.03718   5.04635
 Alpha virt. eigenvalues --    5.05780   5.08179   5.08623   5.09657   5.10376
 Alpha virt. eigenvalues --    5.11106   5.11688   5.13455   5.14546   5.15537
 Alpha virt. eigenvalues --    5.17731   5.18205   5.19065   5.20632   5.21468
 Alpha virt. eigenvalues --    5.25286   5.27140   5.27678   5.29106   5.29524
 Alpha virt. eigenvalues --    5.31057   5.32794   5.33143   5.34592   5.35515
 Alpha virt. eigenvalues --    5.36581   5.38300   5.38836   5.39736   5.41976
 Alpha virt. eigenvalues --    5.42742   5.45017   5.45946   5.46946   5.49337
 Alpha virt. eigenvalues --    5.49789   5.51365   5.51875   5.57613   5.58528
 Alpha virt. eigenvalues --    5.59261   5.62009   5.62963   5.63582   5.64804
 Alpha virt. eigenvalues --    5.65932   5.67587   5.67895   5.69240   5.72174
 Alpha virt. eigenvalues --    5.73414   5.75643   5.78026   5.80437   5.81138
 Alpha virt. eigenvalues --    5.82061   5.83575   5.84431   5.85100   5.86416
 Alpha virt. eigenvalues --    5.87800   5.89054   5.90473   5.92932   5.96913
 Alpha virt. eigenvalues --    6.01096   6.02814   6.06535   6.09264   6.11206
 Alpha virt. eigenvalues --    6.14318   6.15550   6.19882   6.23601   6.25094
 Alpha virt. eigenvalues --    6.29670   6.47611   6.48928   6.53564   6.56413
 Alpha virt. eigenvalues --    6.58113   6.59267   6.61049   6.61154   6.62179
 Alpha virt. eigenvalues --    6.63334   6.64627   6.65313   6.66355   6.66673
 Alpha virt. eigenvalues --    6.67626   6.68137   6.69700   6.70655   6.71522
 Alpha virt. eigenvalues --    6.71834   6.72668   6.75335   6.75655   6.77280
 Alpha virt. eigenvalues --    6.77675   6.78457   6.79253   6.80363   6.80935
 Alpha virt. eigenvalues --    6.81974   6.82407   6.82795   6.83635   6.84098
 Alpha virt. eigenvalues --    6.84673   6.85945   6.86240   6.86962   6.87311
 Alpha virt. eigenvalues --    6.87780   6.88549   6.90563   6.91261   6.91559
 Alpha virt. eigenvalues --    6.92475   6.93070   6.96480   6.97673   6.99451
 Alpha virt. eigenvalues --    7.02813   7.05131   7.05926   7.07467   7.10842
 Alpha virt. eigenvalues --    7.14208   7.16711   7.19509   7.21451   7.22174
 Alpha virt. eigenvalues --    7.26071   7.28047   7.30998   7.33940   7.34827
 Alpha virt. eigenvalues --    7.37224   7.40340   7.41770   7.48139   7.49051
 Alpha virt. eigenvalues --    7.50329   7.51886   7.54503   7.55205   7.56247
 Alpha virt. eigenvalues --    7.59772   7.60353   7.62978   7.65758   7.67599
 Alpha virt. eigenvalues --    7.70137   7.73822   7.79349   7.84295  12.42803
 Alpha virt. eigenvalues --   23.18858  23.25645  23.29807  23.34713  23.45978
 Alpha virt. eigenvalues --   23.48041  43.85293  43.91436  44.03224  44.07431
 Alpha virt. eigenvalues --   44.14914  44.19250  44.32321  44.36973  44.44309
 Alpha virt. eigenvalues --   44.46961
          Condensed to atoms (all electrons):
               1          2          3          4          5          6
     1  Si  11.457167   0.460880  -0.018566   0.467719  -0.021233   0.390964
     2  O    0.460880   7.686788   0.349597  -0.028425  -0.000612  -0.027997
     3  H   -0.018566   0.349597   0.445077   0.001335  -0.000123  -0.000168
     4  O    0.467719  -0.028425   0.001335   7.728832   0.334978  -0.026335
     5  H   -0.021233  -0.000612  -0.000123   0.334978   0.494082   0.001555
     6  O    0.390964  -0.027997  -0.000168  -0.026335   0.001555   7.741636
     7  H   -0.011009  -0.000057  -0.000037   0.002443  -0.000094   0.334563
     8  O    0.430787  -0.026135  -0.001602  -0.025286   0.000600  -0.026816
     9  H   -0.016361   0.000307   0.000093   0.002278  -0.000074   0.000432
    10  C   -0.000466   0.001156  -0.001497  -0.000105   0.000001  -0.003501
    11  H   -0.003338   0.000111  -0.000061   0.000026  -0.000002   0.000080
    12  C    0.003018  -0.000341   0.000549  -0.000045   0.000005  -0.001888
    13  H   -0.000048   0.000001  -0.000001  -0.000000   0.000000  -0.000129
    14  O    0.031182  -0.024037   0.016164   0.000046   0.000021  -0.010811
    15  H   -0.004081   0.002873  -0.001758  -0.000028  -0.000009   0.001671
    16  O   -0.000336  -0.000015  -0.000062  -0.000001   0.000001  -0.010206
    17  H   -0.001864  -0.000326  -0.000046   0.000054  -0.000010   0.028541
    18  C   -0.000811  -0.000160  -0.000041   0.000001   0.000000   0.000079
    19  H   -0.000115   0.000009  -0.000032  -0.000000  -0.000000   0.000002
    20  C   -0.003229   0.000241  -0.000187   0.000108  -0.000016   0.003971
    21  H   -0.002683  -0.000377   0.000010  -0.000152   0.000021  -0.002034
    22  C    0.000322  -0.000004   0.000005   0.000003   0.000001  -0.006975
    23  H    0.000053  -0.000000  -0.000000  -0.000000   0.000000   0.000015
    24  H    0.000065   0.000009  -0.000000  -0.000003   0.000000   0.006713
    25  C    0.000512  -0.000063  -0.000273  -0.000000  -0.000000  -0.000010
    26  H    0.000019  -0.000025   0.000998   0.000001   0.000000   0.000013
    27  H   -0.000069   0.000003   0.000009  -0.000000  -0.000000  -0.000001
    28  O    0.000003   0.000000   0.000004  -0.000000  -0.000000   0.000000
    29  H    0.000002  -0.000000   0.000000   0.000000   0.000000  -0.000000
    30  O    0.000135  -0.000000   0.000003   0.000000   0.000000   0.000061
    31  H    0.000007  -0.000000  -0.000000   0.000000  -0.000000   0.000004
    32  O   -0.000000  -0.000000  -0.000000  -0.000000  -0.000000   0.000031
    33  H   -0.000004   0.000000  -0.000000  -0.000000  -0.000000   0.000064
    34  O    0.000004   0.000000  -0.000006   0.000000  -0.000000   0.000000
    35  H   -0.000001   0.000000   0.000001   0.000000  -0.000000  -0.000000
               7          8          9         10         11         12
     1  Si  -0.011009   0.430787  -0.016361  -0.000466  -0.003338   0.003018
     2  O   -0.000057  -0.026135   0.000307   0.001156   0.000111  -0.000341
     3  H   -0.000037  -0.001602   0.000093  -0.001497  -0.000061   0.000549
     4  O    0.002443  -0.025286   0.002278  -0.000105   0.000026  -0.000045
     5  H   -0.000094   0.000600  -0.000074   0.000001  -0.000002   0.000005
     6  O    0.334563  -0.026816   0.000432  -0.003501   0.000080  -0.001888
     7  H    0.490472   0.000625  -0.000099   0.000513  -0.000025  -0.001186
     8  O    0.000625   7.654399   0.335535  -0.006746   0.010323   0.002933
     9  H   -0.000099   0.335535   0.518651  -0.001864  -0.000009   0.001058
    10  C    0.000513  -0.006746  -0.001864   5.307644   0.377497   0.140524
    11  H   -0.000025   0.010323  -0.000009   0.377497   0.585814  -0.041972
    12  C   -0.001186   0.002933   0.001058   0.140524  -0.041972   5.232164
    13  H    0.000005  -0.000093   0.000009  -0.006971  -0.001236   0.391817
    14  O    0.001039  -0.011672   0.001004   0.130364  -0.026670  -0.017381
    15  H   -0.000131   0.000170  -0.000017  -0.042220   0.007106  -0.025171
    16  O    0.000433   0.000002  -0.000000  -0.039665   0.003790   0.178490
    17  H   -0.000158  -0.000132  -0.000012  -0.004371   0.000116  -0.032574
    18  C   -0.000007  -0.000321  -0.000108   0.057625  -0.003168   0.061612
    19  H   -0.000000  -0.000007  -0.000000  -0.026013   0.009407  -0.018315
    20  C    0.000442  -0.017215  -0.000473  -0.004157  -0.000571   0.118098
    21  H    0.000393   0.016095   0.000985  -0.005522  -0.005366  -0.027362
    22  C    0.000053   0.000839   0.000055   0.008121   0.000510  -0.046866
    23  H    0.000001   0.000025  -0.000006  -0.000388  -0.000127   0.016983
    24  H    0.000156  -0.000174  -0.000001   0.003248  -0.000406  -0.007935
    25  C    0.000003   0.000326   0.000018   0.026783  -0.019875  -0.009557
    26  H   -0.000001  -0.000044  -0.000003  -0.025685   0.001516  -0.000689
    27  H   -0.000000   0.000062  -0.000007   0.014655   0.007318  -0.000645
    28  O   -0.000000   0.000005  -0.000000  -0.075532   0.011144  -0.026597
    29  H    0.000000   0.000001   0.000000   0.013249  -0.000294  -0.000792
    30  O   -0.000005   0.000371   0.000034  -0.014025   0.019706  -0.068295
    31  H    0.000000   0.000107  -0.000009   0.001634  -0.000815   0.008300
    32  O   -0.000004  -0.000002   0.000000   0.004713  -0.000188   0.016492
    33  H   -0.000009  -0.000001  -0.000000   0.000061  -0.000023   0.008721
    34  O   -0.000000   0.000000  -0.000000   0.010156  -0.000376  -0.000602
    35  H   -0.000000   0.000000  -0.000000  -0.002430  -0.000048   0.000073
              13         14         15         16         17         18
     1  Si  -0.000048   0.031182  -0.004081  -0.000336  -0.001864  -0.000811
     2  O    0.000001  -0.024037   0.002873  -0.000015  -0.000326  -0.000160
     3  H   -0.000001   0.016164  -0.001758  -0.000062  -0.000046  -0.000041
     4  O   -0.000000   0.000046  -0.000028  -0.000001   0.000054   0.000001
     5  H    0.000000   0.000021  -0.000009   0.000001  -0.000010   0.000000
     6  O   -0.000129  -0.010811   0.001671  -0.010206   0.028541   0.000079
     7  H    0.000005   0.001039  -0.000131   0.000433  -0.000158  -0.000007
     8  O   -0.000093  -0.011672   0.000170   0.000002  -0.000132  -0.000321
     9  H    0.000009   0.001004  -0.000017  -0.000000  -0.000012  -0.000108
    10  C   -0.006971   0.130364  -0.042220  -0.039665  -0.004371   0.057625
    11  H   -0.001236  -0.026670   0.007106   0.003790   0.000116  -0.003168
    12  C    0.391817  -0.017381  -0.025171   0.178490  -0.032574   0.061612
    13  H    0.525084   0.001822  -0.000085  -0.021723   0.004319  -0.005896
    14  O    0.001822   8.078508   0.297145  -0.021458   0.002735  -0.011371
    15  H   -0.000085   0.297145   0.508968   0.036617  -0.001600   0.016276
    16  O   -0.021723  -0.021458   0.036617   7.981773   0.333123  -0.001867
    17  H    0.004319   0.002735  -0.001600   0.333123   0.459560   0.001142
    18  C   -0.005896  -0.011371   0.016276  -0.001867   0.001142   5.028620
    19  H   -0.002545  -0.004369   0.005289   0.005352  -0.000164   0.414833
    20  C   -0.042988   0.001069   0.003632  -0.036109  -0.001740  -0.012369
    21  H    0.007546   0.000532  -0.000035  -0.001181   0.000509  -0.000780
    22  C   -0.003143  -0.000117  -0.000336   0.019350   0.001281  -0.001391
    23  H   -0.000386  -0.000016  -0.000008   0.000896  -0.000012   0.000081
    24  H    0.003019  -0.000045   0.000025  -0.004390  -0.001036  -0.000322
    25  C    0.002055  -0.009705  -0.004494   0.000676  -0.000014   0.219145
    26  H   -0.000157   0.013193   0.000814  -0.000074  -0.000001  -0.034147
    27  H   -0.000042   0.000304   0.000012  -0.000034   0.000002  -0.044885
    28  O    0.024363   0.002890   0.000057   0.000239  -0.000050   0.319506
    29  H   -0.001314  -0.000351  -0.000020  -0.000020  -0.000000  -0.048064
    30  O    0.010278   0.000283  -0.000118   0.002256  -0.000174  -0.001085
    31  H   -0.000405  -0.000017   0.000021  -0.000499  -0.000043   0.000151
    32  O    0.014683  -0.000023   0.000015  -0.013267  -0.000383  -0.000436
    33  H   -0.004020  -0.000010  -0.000029   0.016454  -0.001108   0.000154
    34  O    0.000015   0.000186  -0.000036   0.000004  -0.000001  -0.092797
    35  H    0.000008   0.000077   0.000003  -0.000000   0.000000   0.012258
              19         20         21         22         23         24
     1  Si  -0.000115  -0.003229  -0.002683   0.000322   0.000053   0.000065
     2  O    0.000009   0.000241  -0.000377  -0.000004  -0.000000   0.000009
     3  H   -0.000032  -0.000187   0.000010   0.000005  -0.000000  -0.000000
     4  O   -0.000000   0.000108  -0.000152   0.000003  -0.000000  -0.000003
     5  H   -0.000000  -0.000016   0.000021   0.000001   0.000000   0.000000
     6  O    0.000002   0.003971  -0.002034  -0.006975   0.000015   0.006713
     7  H   -0.000000   0.000442   0.000393   0.000053   0.000001   0.000156
     8  O   -0.000007  -0.017215   0.016095   0.000839   0.000025  -0.000174
     9  H   -0.000000  -0.000473   0.000985   0.000055  -0.000006  -0.000001
    10  C   -0.026013  -0.004157  -0.005522   0.008121  -0.000388   0.003248
    11  H    0.009407  -0.000571  -0.005366   0.000510  -0.000127  -0.000406
    12  C   -0.018315   0.118098  -0.027362  -0.046866   0.016983  -0.007935
    13  H   -0.002545  -0.042988   0.007546  -0.003143  -0.000386   0.003019
    14  O   -0.004369   0.001069   0.000532  -0.000117  -0.000016  -0.000045
    15  H    0.005289   0.003632  -0.000035  -0.000336  -0.000008   0.000025
    16  O    0.005352  -0.036109  -0.001181   0.019350   0.000896  -0.004390
    17  H   -0.000164  -0.001740   0.000509   0.001281  -0.000012  -0.001036
    18  C    0.414833  -0.012369  -0.000780  -0.001391   0.000081  -0.000322
    19  H    0.647740   0.000918  -0.000052  -0.000106  -0.000002   0.000009
    20  C    0.000918   5.253382   0.401846   0.229454  -0.038732  -0.082216
    21  H   -0.000052   0.401846   0.610283  -0.021448  -0.001302   0.003134
    22  C   -0.000106   0.229454  -0.021448   4.697613   0.391145   0.451820
    23  H   -0.000002  -0.038732  -0.001302   0.391145   0.639470  -0.036599
    24  H    0.000009  -0.082216   0.003134   0.451820  -0.036599   0.659072
    25  C   -0.044888   0.000547  -0.000099   0.000006  -0.000001   0.000005
    26  H   -0.004955  -0.000315   0.000019  -0.000002   0.000000   0.000000
    27  H    0.010912   0.000310  -0.000041   0.000003   0.000000   0.000000
    28  O   -0.046401  -0.001800  -0.000054   0.000079   0.000002  -0.000003
    29  H   -0.006124   0.000175   0.000005  -0.000012   0.000000  -0.000000
    30  O   -0.000058   0.264739  -0.039596  -0.013217  -0.002807   0.006380
    31  H    0.000011  -0.031453  -0.010797  -0.006635   0.003378   0.000677
    32  O    0.000003  -0.081450   0.004323   0.297669  -0.033265  -0.044230
    33  H   -0.000005  -0.010248  -0.000091  -0.039529   0.010266  -0.014550
    34  O    0.005732  -0.000002   0.000001  -0.000000   0.000000   0.000000
    35  H   -0.000602  -0.000004  -0.000000   0.000000  -0.000000  -0.000000
              25         26         27         28         29         30
     1  Si   0.000512   0.000019  -0.000069   0.000003   0.000002   0.000135
     2  O   -0.000063  -0.000025   0.000003   0.000000  -0.000000  -0.000000
     3  H   -0.000273   0.000998   0.000009   0.000004   0.000000   0.000003
     4  O   -0.000000   0.000001  -0.000000  -0.000000   0.000000   0.000000
     5  H   -0.000000   0.000000  -0.000000  -0.000000   0.000000   0.000000
     6  O   -0.000010   0.000013  -0.000001   0.000000  -0.000000   0.000061
     7  H    0.000003  -0.000001  -0.000000  -0.000000   0.000000  -0.000005
     8  O    0.000326  -0.000044   0.000062   0.000005   0.000001   0.000371
     9  H    0.000018  -0.000003  -0.000007  -0.000000   0.000000   0.000034
    10  C    0.026783  -0.025685   0.014655  -0.075532   0.013249  -0.014025
    11  H   -0.019875   0.001516   0.007318   0.011144  -0.000294   0.019706
    12  C   -0.009557  -0.000689  -0.000645  -0.026597  -0.000792  -0.068295
    13  H    0.002055  -0.000157  -0.000042   0.024363  -0.001314   0.010278
    14  O   -0.009705   0.013193   0.000304   0.002890  -0.000351   0.000283
    15  H   -0.004494   0.000814   0.000012   0.000057  -0.000020  -0.000118
    16  O    0.000676  -0.000074  -0.000034   0.000239  -0.000020   0.002256
    17  H   -0.000014  -0.000001   0.000002  -0.000050  -0.000000  -0.000174
    18  C    0.219145  -0.034147  -0.044885   0.319506  -0.048064  -0.001085
    19  H   -0.044888  -0.004955   0.010912  -0.046401  -0.006124  -0.000058
    20  C    0.000547  -0.000315   0.000310  -0.001800   0.000175   0.264739
    21  H   -0.000099   0.000019  -0.000041  -0.000054   0.000005  -0.039596
    22  C    0.000006  -0.000002   0.000003   0.000079  -0.000012  -0.013217
    23  H   -0.000001   0.000000   0.000000   0.000002   0.000000  -0.002807
    24  H    0.000005   0.000000   0.000000  -0.000003  -0.000000   0.006380
    25  C    4.771270   0.439369   0.403735  -0.030912   0.000856   0.000029
    26  H    0.439369   0.615124  -0.042451   0.005331   0.001560  -0.000003
    27  H    0.403735  -0.042451   0.628292   0.000665  -0.002805  -0.000061
    28  O   -0.030912   0.005331   0.000665   7.833103   0.327995   0.000197
    29  H    0.000856   0.001560  -0.002805   0.327995   0.519451   0.000021
    30  O    0.000029  -0.000003  -0.000061   0.000197   0.000021   7.826507
    31  H    0.000020  -0.000000  -0.000000   0.000047   0.000004   0.325664
    32  O    0.000008  -0.000000   0.000000  -0.000011  -0.000000   0.004112
    33  H   -0.000005   0.000000  -0.000000  -0.000007  -0.000000  -0.000433
    34  O    0.309849  -0.043870  -0.048940  -0.008837   0.023414  -0.000000
    35  H   -0.031965  -0.001217  -0.008768  -0.000042  -0.001540   0.000000
              31         32         33         34         35
     1  Si   0.000007  -0.000000  -0.000004   0.000004  -0.000001
     2  O   -0.000000  -0.000000   0.000000   0.000000   0.000000
     3  H   -0.000000  -0.000000  -0.000000  -0.000006   0.000001
     4  O    0.000000  -0.000000  -0.000000   0.000000   0.000000
     5  H   -0.000000  -0.000000  -0.000000  -0.000000  -0.000000
     6  O    0.000004   0.000031   0.000064   0.000000  -0.000000
     7  H    0.000000  -0.000004  -0.000009  -0.000000  -0.000000
     8  O    0.000107  -0.000002  -0.000001   0.000000   0.000000
     9  H   -0.000009   0.000000  -0.000000  -0.000000  -0.000000
    10  C    0.001634   0.004713   0.000061   0.010156  -0.002430
    11  H   -0.000815  -0.000188  -0.000023  -0.000376  -0.000048
    12  C    0.008300   0.016492   0.008721  -0.000602   0.000073
    13  H   -0.000405   0.014683  -0.004020   0.000015   0.000008
    14  O   -0.000017  -0.000023  -0.000010   0.000186   0.000077
    15  H    0.000021   0.000015  -0.000029  -0.000036   0.000003
    16  O   -0.000499  -0.013267   0.016454   0.000004  -0.000000
    17  H   -0.000043  -0.000383  -0.001108  -0.000001   0.000000
    18  C    0.000151  -0.000436   0.000154  -0.092797   0.012258
    19  H    0.000011   0.000003  -0.000005   0.005732  -0.000602
    20  C   -0.031453  -0.081450  -0.010248  -0.000002  -0.000004
    21  H   -0.010797   0.004323  -0.000091   0.000001  -0.000000
    22  C   -0.006635   0.297669  -0.039529  -0.000000   0.000000
    23  H    0.003378  -0.033265   0.010266   0.000000  -0.000000
    24  H    0.000677  -0.044230  -0.014550   0.000000  -0.000000
    25  C    0.000020   0.000008  -0.000005   0.309849  -0.031965
    26  H   -0.000000  -0.000000   0.000000  -0.043870  -0.001217
    27  H   -0.000000   0.000000  -0.000000  -0.048940  -0.008768
    28  O    0.000047  -0.000011  -0.000007  -0.008837  -0.000042
    29  H    0.000004  -0.000000  -0.000000   0.023414  -0.001540
    30  O    0.325664   0.004112  -0.000433  -0.000000   0.000000
    31  H    0.557475   0.000438  -0.000083   0.000000  -0.000000
    32  O    0.000438   7.846219   0.334952   0.000000  -0.000000
    33  H   -0.000083   0.334952   0.509657  -0.000000   0.000000
    34  O    0.000000   0.000000  -0.000000   7.861491   0.326535
    35  H   -0.000000  -0.000000   0.000000   0.326535   0.537725
 Mulliken charges:
               1
     1  Si   0.841375
     2  O   -0.393400
     3  H    0.210616
     4  O   -0.457443
     5  H    0.190907
     6  O   -0.393524
     7  H    0.181681
     8  O   -0.336959
     9  H    0.158583
    10  C    0.163215
    11  H    0.070106
    12  C    0.147375
    13  H    0.106160
    14  O   -0.440510
    15  H    0.199482
    16  O   -0.428548
    17  H    0.214436
    18  C    0.128538
    19  H    0.054538
    20  C    0.086339
    21  H    0.073271
    22  C    0.041454
    23  H    0.051338
    24  H    0.057577
    25  C   -0.023347
    26  H    0.075681
    27  H    0.082469
    28  O   -0.335384
    29  H    0.174606
    30  O   -0.320898
    31  H    0.152820
    32  O   -0.350397
    33  H    0.189825
    34  O   -0.341921
    35  H    0.169938
 Sum of Mulliken charges =  -0.00000
 Mulliken charges with hydrogens summed into heavy atoms:
               1
     1  Si   0.841375
     2  O   -0.182784
     4  O   -0.266535
     6  O   -0.211843
     8  O   -0.178377
    10  C    0.233321
    12  C    0.253534
    14  O   -0.241028
    16  O   -0.214111
    18  C    0.183076
    20  C    0.159610
    22  C    0.150368
    25  C    0.134803
    28  O   -0.160777
    30  O   -0.168078
    32  O   -0.160572
    34  O   -0.171983
 Electronic spatial extent (au):  <R**2>=           5305.5025
 Charge=              0.0000 electrons
 Dipole moment (field-independent basis, Debye):
    X=              3.3665    Y=             -3.7542    Z=              1.3336  Tot=              5.2159
 Quadrupole moment (field-independent basis, Debye-Ang):
   XX=           -101.5739   YY=           -109.3429   ZZ=            -99.9254
   XY=             12.5638   XZ=              0.6003   YZ=             -1.7143
 Traceless Quadrupole moment (field-independent basis, Debye-Ang):
   XX=              2.0402   YY=             -5.7289   ZZ=              3.6887
   XY=             12.5638   XZ=              0.6003   YZ=             -1.7143
 Octapole moment (field-independent basis, Debye-Ang**2):
  XXX=             39.2257  YYY=           -102.6266  ZZZ=             22.6013  XYY=              3.4111
  XXY=            -43.9111  XXZ=              3.8387  XZZ=             21.1983  YZZ=              9.2923
  YYZ=             30.1990  XYZ=              8.2403
 Hexadecapole moment (field-independent basis, Debye-Ang**3):
 XXXX=          -2993.8416 YYYY=          -2650.5819 ZZZZ=           -479.4407 XXXY=            -38.4219
 XXXZ=            -79.6488 YYYX=            226.3135 YYYZ=             17.0281 ZZZX=             25.9421
 ZZZY=             22.6917 XXYY=           -829.7515 XXZZ=           -611.3398 YYZZ=           -456.1234
 XXYZ=           -116.2896 YYXZ=            -22.9360 ZZXY=              0.0374
 N-N= 1.642552982725D+03 E-N=-6.311582470586D+03  KE= 1.276835108254D+03
   1 Symmetry operations used in ECPInt.
 ECPInt:  NShTT=   44551 NPrTT=  121227 LenC2=   39052 LenP2D=   78165.
 LDataN:  DoStor=T MaxTD1= 7 Len=  274
 Calling FoFJK, ICntrl=      2127 FMM=F ISym2X=0 I1Cent= 0 IOpClX= 0 NMat=1 NMatS=1 NMatT=0.
 ***** Axes restored to original set *****
 -------------------------------------------------------------------
 Center     Atomic                   Forces (Hartrees/Bohr)
 Number     Number              X              Y              Z
 -------------------------------------------------------------------
      1       14           0.001660476    0.000107412    0.000215229
      2        8           0.000537776    0.000121960    0.000419829
      3        1          -0.000404397   -0.000017417   -0.000016904
      4        8           0.000508729   -0.000398450   -0.000300779
      5        1          -0.000047060    0.000148842    0.000003273
      6        8           0.000171295   -0.000135472    0.000001868
      7        1           0.000277485    0.000065907   -0.000130562
      8        8           0.000718759    0.000660090   -0.000182492
      9        1           0.000186956    0.000017428    0.000285565
     10        6          -0.000259500   -0.000104409   -0.000102878
     11        1          -0.000000572   -0.000005828    0.000019853
     12        6          -0.000129589   -0.000104679   -0.000105514
     13        1           0.000016446    0.000010256   -0.000036853
     14        8          -0.000450483   -0.000219671   -0.000153928
     15        1           0.000001137   -0.000002558    0.000018237
     16        8           0.000081732   -0.000122253    0.000014358
     17        1          -0.000031516   -0.000033150    0.000012199
     18        6          -0.000335235    0.000101593   -0.000066399
     19        1          -0.000019234    0.000010604   -0.000002874
     20        6          -0.000185800   -0.000167808   -0.000002386
     21        1           0.000021881   -0.000055209    0.000014200
     22        6          -0.000143817   -0.000099264    0.000097077
     23        1          -0.000001649   -0.000020069    0.000013558
     24        1           0.000008821   -0.000005389    0.000011665
     25        6          -0.000504344    0.000079755   -0.000182913
     26        1          -0.000041873   -0.000004836   -0.000024825
     27        1          -0.000013329   -0.000000525   -0.000007684
     28        8          -0.000260672    0.000197993    0.000111589
     29        1          -0.000009539    0.000012844   -0.000001810
     30        8          -0.000220780   -0.000191947    0.000122054
     31        1          -0.000168173   -0.000107775   -0.000191726
     32        8          -0.000128617    0.000034383    0.000270105
     33        1           0.000000150   -0.000246670   -0.000047543
     34        8          -0.000815710    0.000371885   -0.000019797
     35        1          -0.000019756    0.000102427   -0.000052792
 -------------------------------------------------------------------
 Cartesian Forces:  Max     0.001660476 RMS     0.000266722

[...]
 082580,-0.00036106,0.02313234,-0.01158744,-0.03459052,0.00220891,0.001
 12253,0.00131084,-0.00079748,-0.00136641,0.00006527,0.00028089,0.00077
 673,-0.00014882,-0.00350091,-0.00572921,-0.00972843,-0.00166194,0.0013
 9881,0.00071924,0.00043999,-0.00027662,0.00033462,0.00015660,0.0001222
 7,0.00022285,0.08454957,-0.03112718,-0.16588005,0.00873899,-0.00702634
 ,-0.00142006,0.01913865,-0.00866689,-0.02207908,-0.00110370,-0.0001995
 7,0.00319064,0.00257839,0.00385198,-0.00159780,0.00007976,0.00022582,-
 0.00033320,0.00001476,0.00005958,0.00002235,-0.00008828,-0.00003916,0.
 00012074,-0.00075144,0.00006089,0.00043604,0.00011139,-0.00002718,-0.0
 0012790,0.09884356,0.21300757,0.52918800,0.00015579,0.00049813,0.00045
 896,-0.00010652,-0.00014082,-0.00010797,0.00010025,0.00000773,0.000048
 73,0.00006456,-0.00015473,-0.00008429,-0.00000734,0.00001665,0.0000024
 4,-0.00012818,-0.00004508,-0.00016806,0.00000224,0.00002282,0.00005350
 ,0.00007886,-0.00035203,-0.00037017,-0.00012051,0.00006883,0.00007017,
 -0.00005949,0.00007470,0.00025314,0.00004046,0.00026400,-0.00018397,-0
 .00354914,0.00053477,0.00195675,0.00033518,-0.00025191,0.00019677,0.00
 004867,-0.00004019,-0.00016677,0.00003376,-0.00006297,0.00001762,0.000
 72640,0.00039483,0.00195201,0.00029512,-0.00016769,-0.00019903,0.00006
 510,0.00009844,0.00005155,-0.00002158,-0.00002084,-0.00002627,0.011147
 93,0.01255535,0.02674468,-0.00006745,0.00086955,0.00055413,0.00201571,
 0.00125149,0.00246739,-0.00073230,-0.00098711,-0.00071220,-0.00025409,
 -0.00013609,-0.00013239,0.00004544,0.00003102,-0.00002999,-0.00000213,
 -0.00000130,0.00000447,0.00000082,0.00000386,0.00000630,-0.00013033,-0
 .00002566,-0.00000798,0.00003643,-0.00002652,-0.00004075,-0.20824328,-
 0.12474421,-0.23217034,0.19905527,0.00063299,0.00006359,-0.00085106,-0
 .00030812,0.00021969,0.00048662,-0.00012929,-0.00018772,-0.00031097,-0
 .00017552,0.00003894,0.00013136,0.00004509,-0.00002723,-0.00003399,0.0
 0003887,-0.00020396,0.00035518,-0.00002273,0.00007829,-0.00001935,-0.0
 0033030,-0.00013257,0.00026613,0.00011228,0.00005762,-0.00003318,-0.00
 000933,0.00016241,-0.00006811,-0.00000638,0.00012489,-0.00021912,0.001
 92305,-0.00074164,-0.00044320,-0.00012610,0.00020548,0.00010142,0.0002
 1512,-0.00012842,-0.00000592,0.00001749,-0.00000434,-0.00007226,-0.000
 53153,0.00010997,-0.00013408,-0.00016417,0.00021058,-0.00001069,-0.000
 01193,0.00003299,0.00003776,0.00001938,-0.00000145,-0.00000025,-0.0060
 8657,-0.00511442,-0.00708412,-0.00070988,-0.00022674,-0.00004858,0.001
 24994,0.00246498,0.00240593,-0.00075259,-0.00018275,-0.00042119,-0.000
 05231,-0.00040897,-0.00027877,-0.00005562,-0.00000597,-0.00007675,0.00
 000183,-0.00001506,-0.00000429,-0.00001459,0.00000249,0.00002231,0.000
 08669,-0.00006046,0.00004626,-0.00001250,0.00003465,-0.00001436,-0.105
 14955,-0.07872031,-0.15465667,0.11036934,0.08308656,0.00033721,-0.0006
 5469,0.00006054,-0.00003762,0.00027926,-0.00011926,0.00000095,-0.00014
 300,0.00004356,-0.00013861,0.00017137,-0.00000878,0.00001917,-0.000029
 08,0.00001506,-0.00006461,0.00027047,0.00007536,0.00004082,-0.00008673
 ,-0.00007067,-0.00019342,0.00022350,-0.00010697,0.00000719,0.00000695,
 0.00009076,0.00007927,0.00018750,0.00023600,-0.00014094,-0.00032405,0.
 00007752,0.00519413,-0.00070152,-0.00325386,0.00048966,0.00017176,0.00
 031979,-0.00000641,0.00024772,0.00017235,-0.00003931,0.00003078,-0.000
 04015,-0.00033029,-0.00072974,-0.00167432,-0.00029696,-0.00009036,-0.0
 0012064,-0.00011630,0.00002424,-0.00000545,0.00003922,0.00002250,0.000
 02739,-0.02091427,-0.01352198,-0.02748736,-0.00012461,-0.00021442,0.00
 169900,-0.00215693,0.00095157,0.00053091,0.00139197,0.00142490,-0.0001
 7194,-0.00031882,-0.00053557,0.00120511,-0.00004470,-0.00005994,0.0000
 5312,-0.00000238,0.00000046,0.00000070,0.00000603,-0.00000699,-0.00001
 384,0.00010451,0.00004194,-0.00001521,-0.00003144,-0.00000405,0.000028
 02,-0.18348550,-0.14779589,-0.30015264,0.20027883,0.16122502,0.3280123
 5,-0.00048732,-0.00325159,-0.00005986,0.00101526,0.00069616,-0.0001840
 5,-0.00082003,-0.00001734,-0.00017457,-0.00023830,0.00073142,0.0001208
 0,-0.00000484,-0.00006924,0.00002407,0.00042578,0.00151089,0.00053368,
 0.00016353,-0.00052827,-0.00050988,-0.00035684,0.00152786,-0.00017003,
 0.00006325,0.00006707,0.00008386,0.00152569,0.00072274,0.00021009,-0.0
 0008270,-0.00014146,0.00001572,-0.00255478,-0.00005203,-0.00145943,0.0
 0209163,-0.00052407,0.00078937,0.00079588,-0.00138084,0.00017854,-0.00
 023236,0.00013000,0.00004560,0.00148426,-0.00085297,0.00043320,-0.0014
 1021,-0.00081285,-0.00045617,-0.00022649,0.00064704,-0.00000368,0.0000
 3332,0.00000507,-0.00001781,0.00892358,-0.00248512,0.00361066,-0.00049
 933,-0.00296190,0.00137920,-0.12586738,0.08119601,-0.04481418,-0.01051
 267,0.01440250,-0.01264295,-0.01829511,0.02687528,-0.02010494,0.000032
 91,0.00000062,0.00001871,-0.00000085,-0.00006414,-0.00001139,-0.000014
 85,0.00000559,0.00000881,0.00011338,-0.00051493,0.00006389,0.00004583,
 0.00007848,-0.00003512,0.00461391,-0.00009893,-0.00221273,-0.00064823,
 -0.00014200,0.00053482,0.19377317,-0.00217643,0.00150760,0.00053984,0.
 00074835,-0.00092291,-0.00024604,-0.00007033,0.00068419,0.00013910,0.0
 0073237,-0.00048538,-0.00016038,-0.00013488,0.00012240,0.00004004,0.00
 062280,-0.00080605,-0.00067609,-0.00015365,0.00005646,0.00042162,0.001
 03482,-0.00010884,0.00026850,-0.00012392,-0.00023725,-0.00010729,0.000
 93981,0.00068560,0.00018617,0.00007086,0.00008768,-0.00004699,0.002443
 86,0.00259412,0.00131588,0.00002376,-0.00095318,-0.00011710,-0.0006021
 4,-0.00090659,-0.00021255,0.00011004,0.00035835,0.00014737,0.00018124,
 -0.00325741,-0.00173304,-0.00036666,0.00018886,0.00068251,0.00054493,-
 0.00030356,0.00010398,-0.00003497,0.00000398,-0.00001015,0.02597031,-0
 .03199732,0.01863365,-0.00444572,-0.00579772,0.00335042,0.05759621,-0.
 16084985,0.02197729,-0.00451544,0.01048846,-0.00121048,0.01656553,-0.0
 1566899,0.01260817,0.00022410,0.00024371,0.00001745,0.00000795,0.00005
 726,0.00000038,-0.00001024,0.00000542,-0.00001000,-0.00065133,0.000209
 06,-0.00008966,0.00009940,-0.00011547,0.00005296,-0.00301301,0.0038852
 1,0.00166742,-0.00001286,-0.00081208,-0.00020232,-0.05597998,0.3335082
 6,0.00070007,-0.00098333,-0.00162614,-0.00031416,0.00061388,0.00046990
 ,-0.00013431,-0.00041374,-0.00026179,-0.00031010,0.00030096,0.00029614
 ,0.00006001,-0.00004638,-0.00003968,0.00025838,-0.00000219,0.00099507,
 -0.00008867,0.00012638,-0.00028557,-0.00044432,0.00059297,0.00059584,0
 .00017141,-0.00007864,-0.00003814,0.00037501,-0.00044052,0.00030927,-0
 .00017414,-0.00031845,0.00012925,0.00065979,-0.00164410,-0.00403697,0.
 00065582,0.00042350,0.00039181,0.00021771,0.00004755,0.00052068,-0.000
 01291,0.00021782,-0.00019067,-0.00118597,-0.00351425,0.00231028,-0.000
 62110,0.00006456,-0.00052013,-0.00018981,0.00043210,-0.00022020,0.0000
 5986,0.00006187,0.00010548,-0.01241097,0.01804434,-0.00729537,0.001825
 55,0.00313929,-0.00036450,-0.06180677,0.06288466,-0.12614927,-0.022384
 53,0.02691231,-0.01981945,0.00032158,-0.00433027,0.01255738,-0.0000582
 6,-0.00013863,0.00003951,-0.00000587,-0.00001912,0.00000103,-0.0000165
 0,-0.00001986,0.00002438,0.00021014,-0.00012511,0.00017730,-0.00002718
 ,0.00008063,-0.00006804,0.00046558,-0.00061287,0.00108730,-0.00071407,
 -0.00028478,0.00064184,0.21254385,0.10812189,0.53505708,0.00005165,0.0
 0070647,-0.00053646,-0.00034609,-0.00018542,0.00014398,0.00030844,0.00
 000562,0.00005887,0.00005287,-0.00015905,0.00006432,0.00000535,0.00002
 551,-0.00001149,-0.00002784,-0.00058116,0.00022151,-0.00015617,0.00031
 818,0.00004276,0.00000364,-0.00017228,0.00023116,0.00001772,-0.0000236
 7,-0.00003612,-0.00043344,-0.00036229,0.00034346,0.00000883,-0.0000185
 4,0.00000389,0.00256773,-0.00097091,-0.00055315,-0.00139807,-0.0007436
 2,0.00056402,-0.00043955,0.00063243,-0.00000306,0.00011312,0.00003291,
 -0.00008388,-0.00246366,-0.00169221,0.00042195,0.00052751,0.00118631,-
 0.00016782,0.00016986,-0.00023683,-0.00005695,-0.00000596,-0.00000468,
 0.00002458,0.00191670,0.00053825,0.00118547,-0.00035350,-0.00019218,-0
 .00013058,-0.01115876,-0.00829364,-0.02612741,-0.00227835,0.00375921,-
 0.00229718,0.00025042,-0.00138371,-0.00036998,-0.00001295,-0.00003189,
 0.00001733,0.00000074,0.00004046,0.00000669,0.00000857,-0.00000223,-0.
 00000745,-0.00005513,0.00035219,-0.00009431,-0.00004725,-0.00005033,0.
 00003355,-0.00073217,-0.00038072,0.00041060,-0.00013062,0.00002638,-0.
 00015880,-0.05288240,-0.03520561,-0.11784869,0.06689803,0.00088704,0.0
 0022335,0.00070182,-0.00044862,-0.00000725,-0.00015951,0.00038961,-0.0
 0009541,0.00020394,-0.00027867,0.00006152,-0.00008496,0.00005325,-0.00
 004166,-0.00001190,-0.00094045,0.00026139,-0.00039010,0.00014332,0.000
 05595,-0.00001695,-0.00022387,-0.00036786,-0.00022711,0.00002691,0.000
 04911,0.00001276,-0.00035803,-0.00026015,-0.00016894,0.00010772,0.0002
 4959,-0.00010705,-0.00247687,-0.00224180,0.00407369,-0.00095810,-0.000
 49083,0.00007111,0.00001367,0.00079331,-0.00039681,-0.00005401,-0.0006
 4331,0.00009725,0.00039728,0.00452024,-0.00104778,0.00144458,-0.000416
 84,-0.00012328,-0.00034786,0.00009748,-0.00001716,-0.00005428,-0.00006
 268,-0.00008620,0.00136982,0.00039056,0.00224820,-0.00018734,-0.000193
 82,-0.00035939,0.01314954,0.00902518,0.03158264,0.00268245,-0.00270605
 ,0.00272832,0.00103002,-0.00005455,-0.00015581,-0.00011823,-0.00017015
 ,-0.00003723,-0.00000877,-0.00002172,0.00000647,0.00002847,0.00001442,
 -0.00001049,0.00044697,-0.00008139,-0.00004555,-0.00008096,0.00005793,
 -0.00001467,-0.00036456,-0.00061630,-0.00068600,0.00014099,0.00008475,
 -0.00023960,-0.05864154,-0.13127743,-0.20920234,0.04298727,0.12373402,
 -0.00033401,0.00019944,0.00055320,0.00024547,-0.00013127,-0.00015022,-
 0.00012158,0.00012345,0.00002688,0.00011177,-0.00006795,-0.00010761,-0
 .00002552,0.00001328,0.00001962,-0.00005720,0.00005527,-0.00039964,0.0
 0006232,-0.00007576,0.00014815,0.00017549,-0.00010263,-0.00009883,-0.0
 0002944,-0.00001866,-0.00000357,0.00043222,0.00043721,-0.00053225,0.00
 003493,0.00012970,-0.00003506,-0.00088644,0.00168337,0.00157994,0.0011
 6980,0.00029820,0.00017105,0.00017391,-0.00068360,-0.00012932,-0.00002
 953,-0.00003034,0.00013036,0.00044916,0.00019510,-0.00158456,0.0000833
 3,0.00009791,0.00009915,0.00004104,-0.00006794,0.00020561,-0.00001056,
 -0.00004085,-0.00005695,0.00065667,-0.00081238,-0.00107541,-0.00014334
 ,-0.00061096,0.00057506,-0.00785834,-0.00946273,-0.02218162,-0.0014537
 2,0.00336732,0.00050552,0.00072191,-0.00088341,0.00228434,0.00004159,0
 .00008335,-0.00003514,0.00000371,-0.00000574,-0.00000113,0.00000333,0.
 00001475,-0.00001089,-0.00014064,-0.00005468,-0.00011155,0.00002246,-0
 .00004387,0.00004461,-0.00017923,0.00005354,0.00039487,0.00000456,-0.0
 0005016,-0.00005793,-0.13773811,-0.16529922,-0.39488377,0.14470351,0.1
 7178025,0.41477343,0.00150221,0.00035392,-0.00014565,-0.00135992,-0.00
 015404,-0.00006782,0.00132275,-0.00008346,0.00045102,-0.00054200,0.000
 15900,0.00007643,0.00014370,-0.00008910,-0.00003273,-0.00051527,-0.000
 02201,0.00012612,0.00006297,0.00000545,-0.00008567,-0.00039163,-0.0002
 4662,-0.00011086,0.00008858,0.00004629,0.00003530,0.00084933,-0.003791
 59,0.00269161,0.00002626,0.00019233,0.00021660,-0.00091223,0.00096461,
 -0.00196848,-0.00006094,-0.00004144,0.00003374,-0.00168838,-0.00177551
 ,-0.00037623,0.00074585,0.00045831,-0.00036432,-0.00067902,-0.00071198
 ,0.00077486,0.00047184,0.00012862,-0.00009055,-0.03123674,-0.00823207,
 -0.01653185,0.00105911,0.00138604,0.00013063,-0.00025103,-0.00039028,0
 .00097010,0.00009677,0.00002752,0.00001886,-0.00006783,0.00026504,-0.0
 0056318,-0.00008847,-0.00017293,0.00000459,0.00002158,-0.00000077,0.00
 003449,-0.18942314,-0.00256244,-0.08681102,-0.03242162,-0.00475725,-0.
 02054479,-0.00615666,-0.00324541,-0.01086133,0.00304098,0.00055189,-0.
 00021889,-0.00146757,-0.00104005,0.00118619,0.00005908,-0.00043353,-0.
 00037069,-0.00005827,0.00006796,0.00008688,0.00002228,-0.00046551,0.00
 023299,0.00002845,0.00027470,-0.00013660,0.41873060,0.00054564,-0.0003
 8098,0.00002278,-0.00036506,0.00023565,-0.00003791,0.00037990,-0.00020
 617,0.00014214,-0.00022165,0.00019033,0.00003133,0.00002535,-0.0000624
 5,-0.00001684,-0.00031949,0.00023202,-0.00000758,0.00005513,-0.0000455
 9,-0.00005063,-0.00017226,0.00007097,-0.00001690,0.00003897,-0.0000058
 6,0.00000815,0.00057181,-0.00844769,0.00294105,0.00007834,0.00000092,0
 .00026672,-0.00128341,0.00057319,-0.00222241,0.00010558,0.00035470,-0.
 00005563,-0.00017423,0.00204572,0.00028717,0.00004906,-0.00029268,-0.0
 0008143,-0.00073000,-0.00000067,0.00077371,0.00034389,-0.00014255,-0.0
 0001926,-0.03538091,-0.01155654,-0.02133925,0.00101517,0.00202848,-0.0
 0023850,-0.00018894,-0.00054649,0.00078709,-0.00004777,0.00002859,-0.0
 0004687,-0.00002476,0.00008290,-0.00043570,-0.00007837,-0.00014106,0.0
 0000973,-0.00001807,0.00000329,0.00004572,-0.02809129,-0.08179160,-0.0
 0292665,0.01730208,0.01028773,0.01505453,-0.00221426,0.00251498,-0.002
 27141,-0.00604311,0.00086592,-0.00095808,-0.00082962,0.00093568,-0.000
 94522,-0.00007346,-0.00014130,-0.00019683,-0.00002799,0.00000097,0.000
 06074,-0.00010340,-0.00020804,0.00012039,0.00009289,0.00014541,-0.0001
 0089,0.24705180,0.41401172,0.00052199,0.00014532,-0.00027549,-0.000499
 18,-0.00008887,0.00011741,0.00043943,0.00001049,0.00003190,-0.00019172
 ,0.00005702,0.00008490,0.00004700,-0.00003152,-0.00003709,-0.00013742,
 -0.00001256,0.00016182,0.00001171,-0.00001097,-0.00005538,-0.00013270,
 -0.00006632,0.00002387,0.00003515,0.00001158,-0.00000127,0.00073407,0.
 00189548,-0.00027576,0.00049086,0.00045663,0.00060213,0.00048619,0.000
 51037,0.00025949,-0.00000319,-0.00002790,-0.00000947,-0.00063793,-0.00
 019509,0.00009960,0.00007889,0.00000041,-0.00015736,-0.00039776,-0.000
 29883,0.00043075,0.00013557,0.00000764,-0.00004923,0.00527100,-0.00155
 718,0.00623112,-0.00015230,-0.00148422,0.00163381,0.00014045,0.0001215
 0,-0.00009933,0.00001449,0.00000864,0.00000092,0.00000315,0.00010831,-
 0.00006146,0.00000532,-0.00001353,-0.00000206,-0.00000674,-0.00001020,
 0.00002282,-0.05727759,0.01917300,-0.12356379,-0.00582627,0.00198256,0
 .00383299,-0.04169285,-0.00487988,-0.01830487,-0.00020551,-0.00045940,
 0.00201023,0.00018236,-0.00044695,-0.00196309,-0.00012104,-0.00016951,
 0.00010493,0.00000271,0.00005725,-0.00000318,-0.00001230,-0.00015543,0
 .00009897,0.00001043,0.00007908,-0.00006151,0.02785105,-0.17130529,0.2
 3118349,-0.00020402,-0.00012832,0.00000430,0.00017644,0.00007849,0.000
 00273,-0.00014511,-0.00003315,-0.00004039,0.00007467,-0.00000130,-0.00
 000191,-0.00002767,0.00000697,0.00000177,0.00005803,0.00003552,-0.0000
 0522,-0.00000853,-0.00000937,0.00000319,0.00005273,0.00006524,0.000023
 18,-0.00001464,-0.00001403,-0.00000435,0.00003144,-0.00175660,0.000669
 07,-0.00001085,-0.00003459,-0.00004768,-0.00034565,0.00005702,-0.00044
 273,-0.00000423,-0.00001502,-0.00000696,0.00033438,0.00036659,0.000081
 59,-0.00010342,-0.00009960,0.00000826,0.00006363,0.00011693,0.00006952
 ,-0.00003375,-0.00003753,0.00000127,-0.00619722,0.00092484,-0.00435365
 ,0.00024125,0.00049209,-0.00012402,-0.00002781,-0.00015954,0.00008133,
 -0.00000344,0.00000862,0.00000548,-0.00002304,-0.00002826,-0.00003971,
 -0.00000639,-0.00000488,0.00001091,-0.00000607,-0.00000178,0.00000134,
 -0.02004517,-0.02927019,0.01487994,-0.00042324,-0.00000162,0.00085579,
 0.00218051,0.00006862,-0.00052089,0.00106868,0.00173978,0.00051426,0.0
 0030768,-0.00139377,-0.00041504,0.00000476,0.00005779,0.00002890,0.000
 01145,-0.00001541,-0.00000873,0.00001101,0.00004634,-0.00000939,-0.000
 00771,-0.00003145,0.00000708,-0.16095163,-0.19126758,0.07083269,0.1839
 7298,-0.00013523,0.00004030,0.00002335,0.00011621,-0.00002776,-0.00000
 523,-0.00012029,0.00003218,-0.00002857,0.00005437,-0.00003849,-0.00001
 298,-0.00000764,0.00001565,0.00000584,0.00005519,-0.00002723,-0.000012
 54,-0.00000756,0.00000811,0.00000995,0.00003008,-0.00000450,-0.0000035
 1,-0.00000590,0.00000174,0.00000319,0.00018238,-0.00039021,0.00040080,
 -0.00005112,-0.00005901,-0.00007908,-0.00016555,-0.00008487,-0.0001183
 7,-0.00002359,0.00001946,0.00000099,0.00021111,0.00013672,0.00002628,-
 0.00005980,0.00001498,0.00001609,0.00008558,0.00005191,-0.00004891,-0.
 00005010,0.00000326,0.00001333,-0.00103980,-0.00116068,-0.00139783,0.0
 0021711,0.00025640,-0.00018597,-0.00005119,-0.00001120,0.00005720,0.00
 000028,-0.00000531,-0.00000250,-0.00001494,-0.00000530,-0.00000453,-0.
 00000163,0.00000287,0.00000496,0.00000331,0.00000013,-0.00000709,0.002
 97540,-0.00274662,0.00384812,0.00142169,0.00067466,0.00035034,0.001231
 58,0.00044372,0.00070874,-0.00102494,0.00056095,-0.00053432,-0.0004027
 7,0.00084738,0.00080786,0.00004785,0.00002353,-0.00002798,-0.00000450,
 -0.00000476,-0.00000077,0.00002587,0.00002148,-0.00001054,-0.00001312,
 -0.00001501,0.00001089,-0.22371749,-0.33063951,0.15658835,0.22023916,0
 .33206504,-0.00002058,0.00000725,0.00007976,0.00001898,0.00000591,-0.0
 0004993,-0.00000043,-0.00000524,0.00003641,0.00001075,-0.00000979,-0.0
 0002342,-0.00000067,0.00000435,0.00001159,-0.00000304,-0.00000468,-0.0
 0003821,0.00000068,0.00000585,0.00000910,0.00000813,-0.00000934,-0.000
 02218,-0.00000696,0.00000010,0.00000452,-0.00042410,-0.00100476,0.0009
 1186,0.00010038,-0.00001386,0.00000072,-0.00034261,-0.00000713,-0.0002
 6589,-0.00000451,0.00000788,0.00000076,0.00004297,-0.00004756,-0.00007
 754,0.00000891,0.00004419,-0.00001011,0.00003785,-0.00000169,-0.000006
 48,0.00000093,0.00001084,0.00001059,-0.00379830,-0.00023764,-0.0026494
 2,-0.00015421,-0.00004068,0.00024821,-0.00007600,-0.00007648,0.0001410
 9,0.00000454,0.00000005,-0.00000118,-0.00001555,-0.00000411,-0.0000410
 8,-0.00001137,-0.00001516,0.00000115,0.00000612,0.00000247,-0.00000481
 ,-0.01732008,-0.02045965,0.00538221,-0.00005907,0.00060108,0.00006549,
 -0.00045486,-0.00101206,0.00028163,0.00002489,-0.00000658,-0.00004340,
 0.00007778,-0.00005584,-0.00021313,0.00005505,0.00000379,-0.00008431,-
 0.00001043,-0.00001337,0.00001282,0.00001232,0.00000210,-0.00000882,-0
 .00000475,0.00000331,0.00000516,0.10435917,0.18272203,-0.10201078,-0.0
 8206191,-0.16039556,0.09834763\\0.00001842,-0.00000218,-0.00000533,-0.
 00000225,-0.00001459,0.00000946,-0.00000199,0.00001385,-0.00000870,-0.
 00001160,0.00000558,0.00000539,0.00000540,0.00000314,-0.00000488,-0.00
 002079,-0.00000021,-0.00000186,0.00000423,-0.00000154,-0.00000113,0.00
 000177,0.00000778,-0.00000197,-0.00000141,-0.00000216,0.00000349,-0.00
 000283,-0.00000507,-0.00000119,-0.00000078,-0.00000178,-0.00000002,0.0
 0000043,-0.00000043,0.00000646,0.00000016,0.00000005,-0.00000135,0.000
 01780,0.00000284,0.00000504,-0.00001091,0.00000015,-0.00000151,0.00000
 037,-0.00000435,-0.00001072,0.00000924,0.00000333,0.00000578,0.0000017
 3,-0.00000276,0.00000144,-0.00000064,0.00000012,-0.00000036,-0.0000024
 7,-0.00000382,-0.00000191,0.00000186,0.00000128,-0.00000037,0.00000038
 ,0.00000285,-0.00000021,-0.00000218,-0.00000034,0.00000084,-0.00000114
 ,0.00000117,-0.00000032,0.00000003,-0.00000119,-0.00000236,0.00000115,
 -0.00000095,0.00000115,0.00000113,-0.00000036,0.00000013,-0.00000268,0
 .00000023,-0.00000052,-0.00000135,-0.00000122,0.00000078,-0.00000142,0
 .00000685,0.00000007,0.00000020,-0.00000441,0.00000177,0.00000086,-0.0
 0000018,0.,-0.00000227,-0.00000140,0.00000131,-0.00000008,0.00000202,0
 .00000235,0.00000165,-0.00000226,-0.00000070\\\@
 The archive entry for this job was punched.


 FESTINA LENTE!
     - IMPERATOR AUGUSTUS 
 Job cpu time:       1 days  2 hours 13 minutes 14.1 seconds.
 Elapsed time:       0 days  6 hours 36 minutes 30.5 seconds.
 File lengths (MBytes):  RWF=   1521 Int=      0 D2E=      0 Chk=     50 Scr=      1
 Normal termination of Gaussian 16 at Mon Feb 26 05:38:13 2024.
