 Entering Gaussian System, Link 0=/opt/software/gaussian/g16.c01/g16
 Initial command:
 /opt/software/gaussian/g16.c01/l1.exe "/scratch/arhender/24436309/Gau-192431.inp" -scrdir="/scratch/arhender/24436309/"
 Entering Link 1 = /opt/software/gaussian/g16.c01/l1.exe PID=    192433.
  
 Copyright (c) 1988-2019, Gaussian, Inc.  All Rights Reserved.
  
 This is part of the Gaussian(R) 16 program.  It is based on
 the Gaussian(R) 09 system (copyright 2009, Gaussian, Inc.),
 the Gaussian(R) 03 system (copyright 2003, Gaussian, Inc.),
 the Gaussian(R) 98 system (copyright 1998, Gaussian, Inc.),
 the Gaussian(R) 94 system (copyright 1995, Gaussian, Inc.),
 the Gaussian 92(TM) system (copyright 1992, Gaussian, Inc.),
 the Gaussian 90(TM) system (copyright 1990, Gaussian, Inc.),
 the Gaussian 88(TM) system (copyright 1988, Gaussian, Inc.),
 the Gaussian 86(TM) system (copyright 1986, Carnegie Mellon
 University), and the Gaussian 82(TM) system (copyright 1983,
 Carnegie Mellon University). Gaussian is a federally registered
 trademark of Gaussian, Inc.
  
 This software contains proprietary and confidential information,
 including trade secrets, belonging to Gaussian, Inc.
  
 This software is provided under written license and may be
 used, copied, transmitted, or stored only in accord with that
 written license.
  
 The following legend is applicable only to US Government
 contracts under FAR:
  
                    RESTRICTED RIGHTS LEGEND
  
 Use, reproduction and disclosure by the US Government is
 subject to restrictions as set forth in subparagraphs (a)
 and (c) of the Commercial Computer Software - Restricted
 Rights clause in FAR 52.227-19.
  
 Gaussian, Inc.
 340 Quinnipiac St., Bldg. 40, Wallingford CT 06492
  
  
 ---------------------------------------------------------------
 Warning -- This program may not be used in any manner that
 competes with the business of Gaussian, Inc. or will provide
 assistance to any competitor of Gaussian, Inc.  The licensee
 of this program is prohibited from giving any competitor of
 Gaussian, Inc. access to this program.  By using this program,
 the user acknowledges that Gaussian, Inc. is engaged in the
 business of creating and licensing software in the field of
 computational chemistry and represents and warrants to the
 licensee that it is not a competitor of Gaussian, Inc. and that
 it will not use this program in any manner prohibited above.
 ---------------------------------------------------------------
  

 Cite this work as:
 Gaussian 16, Revision C.01,
 M. J. Frisch, G. W. Trucks, H. B. Schlegel, G. E. Scuseria, 
 M. A. Robb, J. R. Cheeseman, G. Scalmani, V. Barone, 
 G. A. Petersson, H. Nakatsuji, X. Li, M. Caricato, A. V. Marenich, 
 J. Bloino, B. G. Janesko, R. Gomperts, B. Mennucci, H. P. Hratchian, 
 J. V. Ortiz, A. F. Izmaylov, J. L. Sonnenberg, D. Williams-Young, 
 F. Ding, F. Lipparini, F. Egidi, J. Goings, B. Peng, A. Petrone, 
 T. Henderson, D. Ranasinghe, V. G. Zakrzewski, J. Gao, N. Rega, 
 G. Zheng, W. Liang, M. Hada, M. Ehara, K. Toyota, R. Fukuda, 
 J. Hasegawa, M. Ishida, T. Nakajima, Y. Honda, O. Kitao, H. Nakai, 
 T. Vreven, K. Throssell, J. A. Montgomery, Jr., J. E. Peralta, 
 F. Ogliaro, M. J. Bearpark, J. J. Heyd, E. N. Brothers, K. N. Kudin, 
 V. N. Staroverov, T. A. Keith, R. Kobayashi, J. Normand, 
 K. Raghavachari, A. P. Rendell, J. C. Burant, S. S. Iyengar, 
 J. Tomasi, M. Cossi, J. M. Millam, M. Klene, C. Adamo, R. Cammi, 
 J. W. Ochterski, R. L. Martin, K. Morokuma, O. Farkas, 
 J. B. Foresman, and D. J. Fox, Gaussian, Inc., Wallingford CT, 2019.
 
 ******************************************
 Gaussian 16:  ES64L-G16RevC.01  3-Jul-2019
                 4-Feb-2024 
 ******************************************
 %chk=Convert_frozen21_unoptimzied_ToMannitol_SiCenteredSN2_TSOptFromFrozen.chk
 %mem=1600MB
 %nprocs=4
 Will use up to    4 processors via shared memory.
 ------------------------------------------------------------------
 # opt=(calcall,ts,noeigen) freq wb97xd/def2tzvpp geom=connectivity
 ------------------------------------------------------------------
 1/5=1,10=4,11=1,18=20,26=3,38=1,57=2/1,3;
 2/9=110,12=2,17=6,18=5,40=1/2;
 3/5=44,7=202,11=2,25=1,30=1,71=2,74=-58,140=1/1,2,3;
 4//1;
 5/5=2,38=5/2;
 8/6=4,10=90,11=11/1;
 11/6=1,8=1,9=11,15=111,16=1/1,2,10;
 10/6=1/2;
 6/7=2,8=2,9=2,10=2,18=1,28=1/1;
 7/10=1,25=1/1,2,3,16;
 1/5=1,10=4,11=1,18=20,26=3/3(3);
 2/9=110/2;
 7/8=1,9=1,25=1,44=-1/16;
 99//99;
 2/9=110/2;
 3/5=44,7=202,11=2,25=1,30=1,71=2,74=-58,140=1/1,2,3;
 4/5=5,16=3,69=1/1;
 5/5=2,38=5/2;
 8/6=4,10=90,11=11/1;
 11/6=1,8=1,9=11,15=111,16=1/1,2,10;
 10/6=1/2;
 7/10=1,25=1/1,2,3,16;
 1/5=1,10=4,11=1,18=20,26=3/3(-8);
 2/9=110/2;
 6/7=2,8=2,9=2,10=2,18=1,19=2,28=1/1;
 7/8=1,9=1,25=1,44=-1/16;
 99//99;
 ----------------------------------------------------------------------
 Take EG unoptimized geometry with correct imaginary frequency and buil
 d mannitol unfreeze geom from prev modredundant run and perform a TS o
 pt
 ----------------------------------------------------------------------
 Symbolic Z-matrix:
 Charge =  0 Multiplicity = 1
 Si                   -2.36409  -0.45202  -0.01973 
 O                    -2.84841  -1.90567   0.52686 
 H                    -2.17792  -2.58038   0.60274 
 O                    -4.25367   0.30238  -0.53967 
 H                    -4.87755  -0.407    -0.38925 
 O                    -2.17324   0.76439   1.07907 
 H                    -3.0107    1.23796   1.10676 
 O                    -1.75827  -0.29862  -1.52438 
 H                    -2.46697  -0.01628  -2.1069 
 C                     0.80906  -0.50607  -0.07029 
 H                     0.63422  -0.48275  -1.14145 
 C                     1.11617   0.91265   0.46086 
 H                     2.19575   1.02106   0.53544 
 O                    -0.41159  -0.98112   0.54402 
 H                    -0.33074  -0.71755   1.47394 
 O                     0.59011   1.05091   1.76847 
 H                    -0.34766   1.27431   1.69709 
 C                     1.90687  -1.50924   0.26704 
 H                     2.00291  -1.57462   1.36165 
 C                     0.60402   2.00689  -0.47831 
 H                    -0.48558   1.91581  -0.57005 
 C                     0.89415   3.39934   0.05949 
 H                     0.51619   4.13382  -0.66491 
 H                     0.33512   3.53519   0.99106 
 C                     1.59685  -2.89496  -0.27261 
 H                     0.68914  -3.29077   0.19054 
 H                     1.44483  -2.82687  -1.35513 
 O                     3.09715  -1.02526  -0.29946 
 H                     3.73724  -1.73842  -0.25583 
 O                     1.22434   1.76964  -1.72251 
 H                     0.8547    2.36119  -2.37567 
 O                     2.27881   3.55661   0.25995 
 H                     2.42958   4.30971   0.8267 
 O                     2.71931  -3.70357   0.03491 
 H                     2.6756   -4.51542  -0.46584 
 
 Add virtual bond connecting atoms O14        and Si1        Dist= 3.97D+00.
 Add virtual bond connecting atoms H17        and O6         Dist= 3.77D+00.
 Add virtual bond connecting atoms O4         and Si1        Dist= 3.97D+00.

 GradGradGradGradGradGradGradGradGradGradGradGradGradGradGradGradGradGrad
 Berny optimization.
 Initialization pass.
                           ----------------------------
                           !    Initial Parameters    !
                           ! (Angstroms and Degrees)  !
 --------------------------                            --------------------------
 ! Name  Definition              Value          Derivative Info.                !
 --------------------------------------------------------------------------------
 ! R1    R(1,2)                  1.6268         calculate D2E/DX2 analytically  !
 ! R2    R(1,4)                  2.1            calculate D2E/DX2 analytically  !
 ! R3    R(1,6)                  1.6503         calculate D2E/DX2 analytically  !
 ! R4    R(1,8)                  1.6293         calculate D2E/DX2 analytically  !
 ! R5    R(1,14)                 2.1            calculate D2E/DX2 analytically  !
 ! R6    R(2,3)                  0.9542         calculate D2E/DX2 analytically  !
 ! R7    R(4,5)                  0.9566         calculate D2E/DX2 analytically  !
 ! R8    R(6,7)                  0.9625         calculate D2E/DX2 analytically  !
 ! R9    R(6,17)                 1.9937         calculate D2E/DX2 analytically  !
 ! R10   R(8,9)                  0.9598         calculate D2E/DX2 analytically  !
 ! R11   R(10,11)                1.0856         calculate D2E/DX2 analytically  !
 ! R12   R(10,12)                1.5457         calculate D2E/DX2 analytically  !
 ! R13   R(10,14)                1.4467         calculate D2E/DX2 analytically  !
 ! R14   R(10,18)                1.5249         calculate D2E/DX2 analytically  !
 ! R15   R(12,13)                1.0876         calculate D2E/DX2 analytically  !
 ! R16   R(12,16)                1.4162         calculate D2E/DX2 analytically  !
 ! R17   R(12,20)                1.5303         calculate D2E/DX2 analytically  !
 ! R18   R(14,15)                0.9699         calculate D2E/DX2 analytically  !
 ! R19   R(16,17)                0.9666         calculate D2E/DX2 analytically  !
 ! R20   R(18,19)                1.1008         calculate D2E/DX2 analytically  !
 ! R21   R(18,25)                1.5191         calculate D2E/DX2 analytically  !
 ! R22   R(18,28)                1.4042         calculate D2E/DX2 analytically  !
 ! R23   R(20,21)                1.0972         calculate D2E/DX2 analytically  !
 ! R24   R(20,22)                1.5206         calculate D2E/DX2 analytically  !
 ! R25   R(20,30)                1.4104         calculate D2E/DX2 analytically  !
 ! R26   R(22,23)                1.0987         calculate D2E/DX2 analytically  !
 ! R27   R(22,24)                1.0949         calculate D2E/DX2 analytically  !
 ! R28   R(22,32)                1.4079         calculate D2E/DX2 analytically  !
 ! R29   R(25,26)                1.0932         calculate D2E/DX2 analytically  !
 ! R30   R(25,27)                1.0953         calculate D2E/DX2 analytically  !
 ! R31   R(25,34)                1.4172         calculate D2E/DX2 analytically  !
 ! R32   R(28,29)                0.9593         calculate D2E/DX2 analytically  !
 ! R33   R(30,31)                0.9556         calculate D2E/DX2 analytically  !
 ! R34   R(32,33)                0.9545         calculate D2E/DX2 analytically  !
 ! R35   R(34,35)                0.9549         calculate D2E/DX2 analytically  !
 ! A1    A(2,1,4)               97.8342         calculate D2E/DX2 analytically  !
 ! A2    A(2,1,6)              117.9931         calculate D2E/DX2 analytically  !
 ! A3    A(2,1,8)              120.34           calculate D2E/DX2 analytically  !
 ! A4    A(2,1,14)              87.792          calculate D2E/DX2 analytically  !
 ! A5    A(4,1,6)               90.236          calculate D2E/DX2 analytically  !
 ! A6    A(4,1,8)               94.1345         calculate D2E/DX2 analytically  !
 ! A7    A(6,1,8)              120.1651         calculate D2E/DX2 analytically  !
 ! A8    A(6,1,14)              84.2291         calculate D2E/DX2 analytically  !
 ! A9    A(8,1,14)              85.7518         calculate D2E/DX2 analytically  !
 ! A10   A(1,2,3)              116.702          calculate D2E/DX2 analytically  !
 ! A11   A(1,4,5)              106.3501         calculate D2E/DX2 analytically  !
 ! A12   A(1,6,7)              106.332          calculate D2E/DX2 analytically  !
 ! A13   A(1,6,17)             120.0544         calculate D2E/DX2 analytically  !
 ! A14   A(7,6,17)             131.4511         calculate D2E/DX2 analytically  !
 ! A15   A(1,8,9)              108.2781         calculate D2E/DX2 analytically  !
 ! A16   A(11,10,12)           110.5693         calculate D2E/DX2 analytically  !
 ! A17   A(11,10,14)           106.8664         calculate D2E/DX2 analytically  !
 ! A18   A(11,10,18)           110.3868         calculate D2E/DX2 analytically  !
 ! A19   A(12,10,14)           108.8516         calculate D2E/DX2 analytically  !
 ! A20   A(12,10,18)           112.6285         calculate D2E/DX2 analytically  !
 ! A21   A(14,10,18)           107.3061         calculate D2E/DX2 analytically  !
 ! A22   A(10,12,13)           108.1971         calculate D2E/DX2 analytically  !
 ! A23   A(10,12,16)           109.4552         calculate D2E/DX2 analytically  !
 ! A24   A(10,12,20)           112.2674         calculate D2E/DX2 analytically  !
 ! A25   A(13,12,16)           107.1981         calculate D2E/DX2 analytically  !
 ! A26   A(13,12,20)           107.64           calculate D2E/DX2 analytically  !
 ! A27   A(16,12,20)           111.872          calculate D2E/DX2 analytically  !
 ! A28   A(1,14,10)            125.9974         calculate D2E/DX2 analytically  !
 ! A29   A(1,14,15)            105.4511         calculate D2E/DX2 analytically  !
 ! A30   A(10,14,15)           104.332          calculate D2E/DX2 analytically  !
 ! A31   A(12,16,17)           108.3448         calculate D2E/DX2 analytically  !
 ! A32   A(6,17,16)            148.4422         calculate D2E/DX2 analytically  !
 ! A33   A(10,18,19)           108.7755         calculate D2E/DX2 analytically  !
 ! A34   A(10,18,25)           111.9992         calculate D2E/DX2 analytically  !
 ! A35   A(10,18,28)           107.1127         calculate D2E/DX2 analytically  !
 ! A36   A(19,18,25)           108.4749         calculate D2E/DX2 analytically  !
 ! A37   A(19,18,28)           110.3459         calculate D2E/DX2 analytically  !
 ! A38   A(25,18,28)           110.1254         calculate D2E/DX2 analytically  !
 ! A39   A(12,20,21)           108.924          calculate D2E/DX2 analytically  !
 ! A40   A(12,20,22)           111.9547         calculate D2E/DX2 analytically  !
 ! A41   A(12,20,30)           105.8983         calculate D2E/DX2 analytically  !
 ! A42   A(21,20,22)           107.1602         calculate D2E/DX2 analytically  !
 ! A43   A(21,20,30)           110.4291         calculate D2E/DX2 analytically  !
 ! A44   A(22,20,30)           112.4654         calculate D2E/DX2 analytically  !
 ! A45   A(20,22,23)           108.2604         calculate D2E/DX2 analytically  !
 ! A46   A(20,22,24)           108.4883         calculate D2E/DX2 analytically  !
 ! A47   A(20,22,32)           109.8945         calculate D2E/DX2 analytically  !
 ! A48   A(23,22,24)           107.6013         calculate D2E/DX2 analytically  !
 ! A49   A(23,22,32)           110.9495         calculate D2E/DX2 analytically  !
 ! A50   A(24,22,32)           111.54           calculate D2E/DX2 analytically  !
 ! A51   A(18,25,26)           110.4409         calculate D2E/DX2 analytically  !
 ! A52   A(18,25,27)           108.8283         calculate D2E/DX2 analytically  !
 ! A53   A(18,25,34)           106.3654         calculate D2E/DX2 analytically  !
 ! A54   A(26,25,27)           109.0259         calculate D2E/DX2 analytically  !
 ! A55   A(26,25,34)           111.0468         calculate D2E/DX2 analytically  !
 ! A56   A(27,25,34)           111.0924         calculate D2E/DX2 analytically  !
 ! A57   A(18,28,29)           106.9188         calculate D2E/DX2 analytically  !
 ! A58   A(20,30,31)           109.1907         calculate D2E/DX2 analytically  !
 ! A59   A(22,32,33)           109.149          calculate D2E/DX2 analytically  !
 ! A60   A(25,34,35)           109.5771         calculate D2E/DX2 analytically  !
 ! A61   L(4,1,14,2,-1)        185.6263         calculate D2E/DX2 analytically  !
 ! A62   L(4,1,14,2,-2)        183.2623         calculate D2E/DX2 analytically  !
 ! D1    D(4,1,2,3)            162.6381         calculate D2E/DX2 analytically  !
 ! D2    D(6,1,2,3)           -102.8972         calculate D2E/DX2 analytically  !
 ! D3    D(8,1,2,3)             63.1491         calculate D2E/DX2 analytically  !
 ! D4    D(14,1,2,3)           -20.6242         calculate D2E/DX2 analytically  !
 ! D5    D(2,1,4,5)             -4.2255         calculate D2E/DX2 analytically  !
 ! D6    D(6,1,4,5)           -122.5431         calculate D2E/DX2 analytically  !
 ! D7    D(8,1,4,5)            117.1849         calculate D2E/DX2 analytically  !
 ! D8    D(2,1,6,7)            -92.6353         calculate D2E/DX2 analytically  !
 ! D9    D(2,1,6,17)           102.233          calculate D2E/DX2 analytically  !
 ! D10   D(4,1,6,7)              6.3719         calculate D2E/DX2 analytically  !
 ! D11   D(4,1,6,17)          -158.7598         calculate D2E/DX2 analytically  !
 ! D12   D(8,1,6,7)            101.2931         calculate D2E/DX2 analytically  !
 ! D13   D(8,1,6,17)           -63.8386         calculate D2E/DX2 analytically  !
 ! D14   D(14,1,6,7)          -177.0358         calculate D2E/DX2 analytically  !
 ! D15   D(14,1,6,17)           17.8325         calculate D2E/DX2 analytically  !
 ! D16   D(2,1,8,9)             96.2003         calculate D2E/DX2 analytically  !
 ! D17   D(4,1,8,9)             -5.3752         calculate D2E/DX2 analytically  !
 ! D18   D(6,1,8,9)            -98.0569         calculate D2E/DX2 analytically  !
 ! D19   D(14,1,8,9)          -178.862          calculate D2E/DX2 analytically  !
 ! D20   D(2,1,14,10)          151.4179         calculate D2E/DX2 analytically  !
 ! D21   D(2,1,14,15)          -87.3678         calculate D2E/DX2 analytically  !
 ! D22   D(6,1,14,10)          -90.1574         calculate D2E/DX2 analytically  !
 ! D23   D(6,1,14,15)           31.0569         calculate D2E/DX2 analytically  !
 ! D24   D(8,1,14,10)           30.77           calculate D2E/DX2 analytically  !
 ! D25   D(8,1,14,15)          151.9843         calculate D2E/DX2 analytically  !
 ! D26   D(1,6,17,16)          -15.8625         calculate D2E/DX2 analytically  !
 ! D27   D(7,6,17,16)         -176.6825         calculate D2E/DX2 analytically  !
 ! D28   D(11,10,12,13)        -97.473          calculate D2E/DX2 analytically  !
 ! D29   D(11,10,12,16)        146.0263         calculate D2E/DX2 analytically  !
 ! D30   D(11,10,12,20)         21.1664         calculate D2E/DX2 analytically  !
 ! D31   D(14,10,12,13)        145.4241         calculate D2E/DX2 analytically  !
 ! D32   D(14,10,12,16)         28.9234         calculate D2E/DX2 analytically  !
 ! D33   D(14,10,12,20)        -95.9364         calculate D2E/DX2 analytically  !
 ! D34   D(18,10,12,13)         26.5506         calculate D2E/DX2 analytically  !
 ! D35   D(18,10,12,16)        -89.9502         calculate D2E/DX2 analytically  !
 ! D36   D(18,10,12,20)        145.19           calculate D2E/DX2 analytically  !
 ! D37   D(11,10,14,1)         -40.291          calculate D2E/DX2 analytically  !
 ! D38   D(11,10,14,15)       -161.9918         calculate D2E/DX2 analytically  !
 ! D39   D(12,10,14,1)          79.1454         calculate D2E/DX2 analytically  !
 ! D40   D(12,10,14,15)        -42.5553         calculate D2E/DX2 analytically  !
 ! D41   D(18,10,14,1)        -158.6986         calculate D2E/DX2 analytically  !
 ! D42   D(18,10,14,15)         79.6007         calculate D2E/DX2 analytically  !
 ! D43   D(11,10,18,19)       -175.2274         calculate D2E/DX2 analytically  !
 ! D44   D(11,10,18,25)        -55.3381         calculate D2E/DX2 analytically  !
 ! D45   D(11,10,18,28)         65.504          calculate D2E/DX2 analytically  !
 ! D46   D(12,10,18,19)         60.6482         calculate D2E/DX2 analytically  !
 ! D47   D(12,10,18,25)       -179.4625         calculate D2E/DX2 analytically  !
 ! D48   D(12,10,18,28)        -58.6203         calculate D2E/DX2 analytically  !
 ! D49   D(14,10,18,19)        -59.1236         calculate D2E/DX2 analytically  !
 ! D50   D(14,10,18,25)         60.7658         calculate D2E/DX2 analytically  !
 ! D51   D(14,10,18,28)       -178.3921         calculate D2E/DX2 analytically  !
 ! D52   D(10,12,16,17)        -82.886          calculate D2E/DX2 analytically  !
 ! D53   D(13,12,16,17)        159.9826         calculate D2E/DX2 analytically  !
 ! D54   D(20,12,16,17)         42.203          calculate D2E/DX2 analytically  !
 ! D55   D(10,12,20,21)         60.947          calculate D2E/DX2 analytically  !
 ! D56   D(10,12,20,22)        179.2734         calculate D2E/DX2 analytically  !
 ! D57   D(10,12,20,30)        -57.8245         calculate D2E/DX2 analytically  !
 ! D58   D(13,12,20,21)        179.9141         calculate D2E/DX2 analytically  !
 ! D59   D(13,12,20,22)        -61.7595         calculate D2E/DX2 analytically  !
 ! D60   D(13,12,20,30)         61.1425         calculate D2E/DX2 analytically  !
 ! D61   D(16,12,20,21)        -62.5709         calculate D2E/DX2 analytically  !
 ! D62   D(16,12,20,22)         55.7555         calculate D2E/DX2 analytically  !
 ! D63   D(16,12,20,30)        178.6575         calculate D2E/DX2 analytically  !
 ! D64   D(12,16,17,6)          61.21           calculate D2E/DX2 analytically  !
 ! D65   D(10,18,25,26)        -62.8333         calculate D2E/DX2 analytically  !
 ! D66   D(10,18,25,27)         56.8138         calculate D2E/DX2 analytically  !
 ! D67   D(10,18,25,34)        176.5764         calculate D2E/DX2 analytically  !
 ! D68   D(19,18,25,26)         57.2317         calculate D2E/DX2 analytically  !
 ! D69   D(19,18,25,27)        176.8788         calculate D2E/DX2 analytically  !
 ! D70   D(19,18,25,34)        -63.3586         calculate D2E/DX2 analytically  !
 ! D71   D(28,18,25,26)        178.0857         calculate D2E/DX2 analytically  !
 ! D72   D(28,18,25,27)        -62.2672         calculate D2E/DX2 analytically  !
 ! D73   D(28,18,25,34)         57.4953         calculate D2E/DX2 analytically  !
 ! D74   D(10,18,28,29)       -167.8493         calculate D2E/DX2 analytically  !
 ! D75   D(19,18,28,29)         73.8987         calculate D2E/DX2 analytically  !
 ! D76   D(25,18,28,29)        -45.8265         calculate D2E/DX2 analytically  !
 ! D77   D(12,20,22,23)        179.1846         calculate D2E/DX2 analytically  !
 ! D78   D(12,20,22,24)        -64.3228         calculate D2E/DX2 analytically  !
 ! D79   D(12,20,22,32)         57.8654         calculate D2E/DX2 analytically  !
 ! D80   D(21,20,22,23)        -61.4459         calculate D2E/DX2 analytically  !
 ! D81   D(21,20,22,24)         55.0466         calculate D2E/DX2 analytically  !
 ! D82   D(21,20,22,32)        177.2349         calculate D2E/DX2 analytically  !
 ! D83   D(30,20,22,23)         60.0876         calculate D2E/DX2 analytically  !
 ! D84   D(30,20,22,24)        176.5801         calculate D2E/DX2 analytically  !
 ! D85   D(30,20,22,32)        -61.2316         calculate D2E/DX2 analytically  !
 ! D86   D(12,20,30,31)        173.0087         calculate D2E/DX2 analytically  !
 ! D87   D(21,20,30,31)         55.2379         calculate D2E/DX2 analytically  !
 ! D88   D(22,20,30,31)        -64.4136         calculate D2E/DX2 analytically  !
 ! D89   D(20,22,32,33)       -163.3365         calculate D2E/DX2 analytically  !
 ! D90   D(23,22,32,33)         76.9701         calculate D2E/DX2 analytically  !
 ! D91   D(24,22,32,33)        -42.9787         calculate D2E/DX2 analytically  !
 ! D92   D(18,25,34,35)       -165.9115         calculate D2E/DX2 analytically  !
 ! D93   D(26,25,34,35)         73.8893         calculate D2E/DX2 analytically  !
 ! D94   D(27,25,34,35)        -47.6313         calculate D2E/DX2 analytically  !
 --------------------------------------------------------------------------------
 Trust Radius=3.00D-01 FncErr=1.00D-07 GrdErr=1.00D-06 EigMax=2.50D+02 EigMin=1.00D-04
 Number of steps in this run=    201 maximum allowed number of steps=    210.
 Search for a saddle point of order  1.
 GradGradGradGradGradGradGradGradGradGradGradGradGradGradGradGradGradGrad

                          Input orientation:                          
 ---------------------------------------------------------------------
 Center     Atomic      Atomic             Coordinates (Angstroms)
 Number     Number       Type             X           Y           Z
 ---------------------------------------------------------------------
      1         14           0       -2.364087   -0.452020   -0.019726
      2          8           0       -2.848410   -1.905667    0.526860
      3          1           0       -2.177918   -2.580384    0.602738
      4          8           0       -4.253673    0.302383   -0.539670
      5          1           0       -4.877549   -0.406996   -0.389254
      6          8           0       -2.173239    0.764389    1.079067
      7          1           0       -3.010701    1.237957    1.106760
      8          8           0       -1.758269   -0.298616   -1.524375
      9          1           0       -2.466969   -0.016281   -2.106904
     10          6           0        0.809058   -0.506068   -0.070285
     11          1           0        0.634217   -0.482745   -1.141448
     12          6           0        1.116174    0.912652    0.460857
     13          1           0        2.195750    1.021062    0.535438
     14          8           0       -0.411589   -0.981117    0.544019
     15          1           0       -0.330737   -0.717548    1.473941
     16          8           0        0.590109    1.050910    1.768473
     17          1           0       -0.347659    1.274307    1.697090
     18          6           0        1.906874   -1.509235    0.267044
     19          1           0        2.002909   -1.574616    1.361652
     20          6           0        0.604019    2.006889   -0.478313
     21          1           0       -0.485581    1.915814   -0.570051
     22          6           0        0.894151    3.399339    0.059490
     23          1           0        0.516185    4.133819   -0.664910
     24          1           0        0.335118    3.535186    0.991057
     25          6           0        1.596847   -2.894958   -0.272605
     26          1           0        0.689144   -3.290771    0.190536
     27          1           0        1.444834   -2.826867   -1.355127
     28          8           0        3.097150   -1.025256   -0.299457
     29          1           0        3.737244   -1.738417   -0.255831
     30          8           0        1.224340    1.769636   -1.722510
     31          1           0        0.854702    2.361185   -2.375673
     32          8           0        2.278807    3.556605    0.259950
     33          1           0        2.429584    4.309708    0.826701
     34          8           0        2.719310   -3.703571    0.034912
     35          1           0        2.675601   -4.515417   -0.465835
 ---------------------------------------------------------------------
                    Distance matrix (angstroms):
                    1          2          3          4          5
     1  Si   0.000000
     2  O    1.626780   0.000000
     3  H    2.225321   0.954233   0.000000
     4  O    2.100000   2.826258   3.731514   0.000000
     5  H    2.540880   2.683782   3.604951   0.956590   0.000000
     6  O    1.650279   2.808912   3.378523   2.676185   3.292628
     7  H    2.131456   3.200780   3.940469   2.265173   2.903283
     8  O    1.629269   2.824639   3.147567   2.749161   3.321168
     9  H    2.134658   3.263739   3.741702   2.397933   2.985611
    10  C    3.174008   3.961380   3.698347   5.148316   5.696407
    11  H    3.201411   4.115416   3.917956   4.986986   5.563371
    12  C    3.769019   4.864690   4.803381   5.496248   6.195876
    13  H    4.823929   5.831755   5.666032   6.577797   7.275023
    14  O    2.100000   2.606374   2.383489   4.193252   4.598414
    15  H    2.536939   2.940623   2.764278   4.525960   4.923559
    16  O    3.766129   4.701740   4.712452   5.417568   6.056118
    17  H    3.161273   4.211345   4.405235   4.604854   5.263033
    18  C    4.409200   4.778848   4.236222   6.471869   6.904640
    19  H    4.715833   4.933738   4.366559   6.803159   7.195117
    20  C    3.881519   5.313919   5.472743   5.148425   5.990189
    21  H    3.072178   4.624921   4.945223   4.099097   4.971671
    22  C    5.045330   6.509093   6.744614   6.037402   6.928353
    23  H    5.453636   7.015426   7.344770   6.119406   7.056015
    24  H    4.919878   6.320855   6.623167   5.818174   6.679667
    25  C    4.660568   4.623651   3.887677   6.672548   6.936956
    26  H    4.174319   3.813911   2.982382   6.154299   6.296061
    27  H    4.683062   4.777283   4.125327   6.552111   6.838217
    28  O    5.498360   6.066927   5.573035   7.473615   7.999133
    29  H    6.239936   6.634110   6.036157   8.252284   8.718093
    30  O    4.551048   5.929149   5.992062   5.793148   6.614253
    31  H    4.881108   6.351674   6.518191   5.805607   6.668387
    32  O    6.140339   7.496400   7.592268   7.341842   8.206402
    33  H    6.809536   8.159535   8.291719   7.911482   8.781801
    34  O    6.034608   5.871454   5.056364   8.062277   8.292140
    35  H    6.489119   6.189583   5.333184   8.439875   8.598550
                    6          7          8          9         10
     6  O    0.000000
     7  H    0.962484   0.000000
     8  O    2.842550   3.294315   0.000000
     9  H    3.293347   3.492334   0.959848   0.000000
    10  C    3.439356   4.360919   2.957800   3.888452   0.000000
    11  H    3.790493   4.615266   2.429923   3.281318   1.085589
    12  C    3.350284   4.189763   3.697396   4.505022   1.545703
    13  H    4.410156   5.242193   4.649586   5.458846   2.149870
    14  O    2.537022   3.463575   2.560783   3.490399   1.446727
    15  H    2.397264   3.337818   3.347126   4.228205   1.930930
    16  O    2.862423   3.665881   4.263678   5.050066   2.419328
    17  H    1.993668   2.727930   3.852498   4.541747   2.762489
    18  C    4.740893   5.695150   4.255356   5.195675   1.524905
    19  H    4.794894   5.754287   4.909561   5.868483   2.148841
    20  C    3.417953   4.021183   3.462658   4.022001   2.554111
    21  H    2.625559   3.106029   2.726567   3.165566   2.791302
    22  C    4.170297   4.584345   4.818592   5.258978   3.908489
    23  H    4.650539   4.895279   5.055522   5.310545   4.686993
    24  H    3.738571   4.060191   5.040606   5.482880   4.205092
    25  C    5.425070   6.341383   4.423203   5.307168   2.523557
    26  H    5.042524   5.919265   4.228917   5.095249   2.799460
    27  H    5.649148   6.514252   4.084185   4.875117   2.727845
    28  O    5.734122   6.663739   5.059992   5.936692   2.357423
    29  H    6.555898   7.500015   5.820901   6.699588   3.182355
    30  O    4.516957   5.120842   3.634953   4.118619   2.842734
    31  H    4.863477   5.322624   3.824509   4.093663   3.679407
    32  O    5.318659   5.837132   5.860420   6.394521   4.332958
    33  H    5.815407   6.253862   6.655999   7.162154   5.159689
    34  O    6.707456   7.642027   5.837277   6.714237   3.726145
    35  H    7.333098   8.240655   6.209760   7.027187   4.440194
                   11         12         13         14         15
    11  H    0.000000
    12  C    2.178714   0.000000
    13  H    2.740760   1.087566   0.000000
    14  O    2.045210   2.434612   3.287402   0.000000
    15  H    2.797593   2.403631   3.207287   0.969928   0.000000
    16  O    3.289633   1.416234   2.024685   2.575232   2.015478
    17  H    3.479743   1.949839   2.807579   2.533890   2.004387
    18  C    2.158052   2.555055   2.560837   2.393929   2.662756
    19  H    3.054670   2.790024   2.730817   2.617358   2.488590
    20  C    2.576614   1.530261   2.129120   3.317349   3.479601
    21  H    2.708049   2.152841   3.035164   3.104647   3.337136
    22  C    4.071903   2.528636   2.752615   4.596533   4.522143
    23  H    4.642594   3.464571   3.735108   5.337119   5.369145
    24  H    4.558597   2.787265   3.160753   4.599392   4.331545
    25  C    2.738671   3.907289   4.043121   2.891968   3.392214
    26  H    3.108409   4.233697   4.580472   2.582840   3.051026
    27  H    2.489511   4.170110   4.352547   3.234170   3.950380
    28  O    2.658817   2.873644   2.386837   3.608968   3.871697
    29  H    3.462630   3.796290   3.258379   4.292561   4.536822
    30  O    2.399812   2.348023   2.569500   3.921742   4.338392
    31  H    3.108032   3.195703   3.474033   4.615092   5.069851
    32  O    4.580932   2.895266   2.551817   5.282977   5.152851
    33  H    5.483116   3.660448   3.309789   6.012071   5.771620
    34  O    4.013123   4.905200   4.779832   4.180128   4.504434
    35  H    4.570136   5.723155   5.646716   4.800190   5.217721
                   16         17         18         19         20
    16  O    0.000000
    17  H    0.966649   0.000000
    18  C    3.246922   3.856949   0.000000
    19  H    3.009135   3.708645   1.100756   0.000000
    20  C    2.441749   2.484904   3.823103   4.262575   0.000000
    21  H    2.715486   2.360187   4.260931   4.701825   1.097241
    22  C    2.920305   2.956279   5.016252   5.259772   1.520633
    23  H    3.928250   3.808160   5.886137   6.237270   2.136905
    24  H    2.615535   2.465003   5.332991   5.387852   2.137065
    25  C    4.555150   5.004355   1.519067   2.139856   5.005610
    26  H    4.620594   4.917784   2.159303   2.458186   5.340394
    27  H    5.052186   5.417443   2.140344   3.043102   4.984072
    28  O    3.856430   4.597923   1.404249   2.063599   3.929579
    29  H    4.667184   5.438459   1.917336   2.377183   4.888140
    30  O    3.620190   3.796076   3.895532   4.615436   1.410359
    31  H    4.354397   4.383420   4.803246   5.547658   1.946367
    32  O    3.377255   3.764649   5.079480   5.255406   2.398242
    33  H    3.858804   4.205272   5.869117   5.923976   3.215389
    34  O    5.490339   6.078520   2.351393   2.608816   6.111236
    35  H    6.350229   6.880352   3.188288   3.527114   6.843397
                   21         22         23         24         25
    21  H    0.000000
    22  C    2.121516   0.000000
    23  H    2.435586   1.098669   0.000000
    24  H    2.394362   1.094892   1.770134   0.000000
    25  C    5.250572   6.342101   7.122179   6.673496   0.000000
    26  H    5.391382   6.694533   7.475710   6.881850   1.093203
    27  H    5.180335   6.408591   7.056199   6.871082   1.095262
    28  O    4.643175   4.955713   5.780224   5.485606   2.397377
    29  H    5.593245   5.880403   6.710121   6.398444   2.432934
    30  O    2.067211   2.437310   2.685026   3.357280   4.898921
    31  H    2.292375   2.647516   2.486671   3.603209   5.709703
    32  O    3.320081   1.407902   2.072529   2.076753   6.509328
    33  H    4.022416   1.942920   2.432475   2.239126   7.335471
    34  O    6.497291   7.333699   8.171181   7.681028   1.417161
    35  H    7.166915   8.129754   8.916950   8.509560   1.956255
                   26         27         28         29         30
    26  H    0.000000
    27  H    1.781951   0.000000
    28  O    3.342326   2.662779   0.000000
    29  H    3.449632   2.765559   0.959282   0.000000
    30  O    5.436350   4.616430   3.652933   4.557661   0.000000
    31  H    6.209464   5.320306   4.561494   5.441463   0.955607
    32  O    7.029823   6.637221   4.687864   5.516369   2.869722
    33  H    7.823114   7.527337   5.493243   6.281852   3.795136
    34  O    2.077546   2.079689   2.725424   2.232163   5.939652
    35  H    2.424168   2.270865   3.519461   2.980422   6.571703
                   31         32         33         34         35
    31  H    0.000000
    32  O    3.225463   0.000000
    33  H    4.065980   0.954518   0.000000
    34  O    6.787411   7.277008   8.057513   0.000000
    35  H    7.365515   8.114293   8.922668   0.954857   0.000000
 Stoichiometry    C6H18O10Si
 Framework group  C1[X(C6H18O10Si)]
 Deg. of freedom    99
 Full point group                 C1      NOp   1
 Largest Abelian subgroup         C1      NOp   1
 Largest concise Abelian subgroup C1      NOp   1
                         Standard orientation:                         
 ---------------------------------------------------------------------
 Center     Atomic      Atomic             Coordinates (Angstroms)
 Number     Number       Type             X           Y           Z
 ---------------------------------------------------------------------
      1         14           0        2.364087   -0.452020    0.019726
      2          8           0        2.848410   -1.905667   -0.526860
      3          1           0        2.177918   -2.580384   -0.602738
      4          8           0        4.253673    0.302383    0.539670
      5          1           0        4.877549   -0.406996    0.389254
      6          8           0        2.173239    0.764389   -1.079067
      7          1           0        3.010701    1.237957   -1.106760
      8          8           0        1.758269   -0.298616    1.524375
      9          1           0        2.466969   -0.016281    2.106904
     10          6           0       -0.809058   -0.506068    0.070285
     11          1           0       -0.634217   -0.482745    1.141448
     12          6           0       -1.116174    0.912652   -0.460857
     13          1           0       -2.195750    1.021062   -0.535438
     14          8           0        0.411589   -0.981117   -0.544019
     15          1           0        0.330737   -0.717548   -1.473941
     16          8           0       -0.590109    1.050910   -1.768473
     17          1           0        0.347659    1.274307   -1.697090
     18          6           0       -1.906874   -1.509235   -0.267044
     19          1           0       -2.002909   -1.574616   -1.361652
     20          6           0       -0.604019    2.006889    0.478313
     21          1           0        0.485581    1.915814    0.570051
     22          6           0       -0.894151    3.399339   -0.059490
     23          1           0       -0.516185    4.133819    0.664910
     24          1           0       -0.335118    3.535186   -0.991057
     25          6           0       -1.596847   -2.894958    0.272605
     26          1           0       -0.689144   -3.290771   -0.190536
     27          1           0       -1.444834   -2.826867    1.355127
     28          8           0       -3.097150   -1.025256    0.299457
     29          1           0       -3.737244   -1.738417    0.255831
     30          8           0       -1.224340    1.769636    1.722510
     31          1           0       -0.854702    2.361185    2.375673
     32          8           0       -2.278807    3.556605   -0.259950
     33          1           0       -2.429584    4.309708   -0.826701
     34          8           0       -2.719310   -3.703571   -0.034912
     35          1           0       -2.675602   -4.515417    0.465835
 ---------------------------------------------------------------------
 Rotational constants (GHZ):           0.4068663           0.3402378           0.2174857
 Standard basis: def2TZVPP (5D, 7F)
 There are   894 symmetry adapted cartesian basis functions of A   symmetry.
 There are   790 symmetry adapted basis functions of A   symmetry.
   790 basis functions,  1191 primitive gaussians,   894 cartesian basis functions
    74 alpha electrons       74 beta electrons
       nuclear repulsion energy      1658.4132305585 Hartrees.
 NAtoms=   35 NActive=   35 NUniq=   35 SFac= 1.00D+00 NAtFMM=   60 NAOKFM=F Big=F
 Integral buffers will be    131072 words long.
 Raffenetti 2 integral format.
 Two-electron integral symmetry is turned on.
 Nuclear repulsion after empirical dispersion term =     1658.3857999883 Hartrees.
 One-electron integrals computed using PRISM.
   1 Symmetry operations used in ECPInt.
 ECPInt:  NShTT=   44551 NPrTT=  121227 LenC2=   39123 LenP2D=   78428.
 LDataN:  DoStor=T MaxTD1= 6 Len=  172
 NBasis=   790 RedAO= T EigKep=  3.29D-05  NBF=   790
 NBsUse=   790 1.00D-06 EigRej= -1.00D+00 NBFU=   790
 ExpMin= 7.01D-02 ExpMax= 4.48D+04 ExpMxC= 1.53D+03 IAcc=3 IRadAn=         5 AccDes= 0.00D+00
 Harris functional with IExCor= 4639 and IRadAn=       5 diagonalized for initial guess.
 HarFok:  IExCor= 4639 AccDes= 0.00D+00 IRadAn=         5 IDoV= 1 UseB2=F ITyADJ=14
 ICtDFT=  3500011 ScaDFX=  1.000000  1.000000  1.000000  1.000000
 FoFCou: FMM=F IPFlag=           0 FMFlag=      100000 FMFlg1=           0
         NFxFlg=           0 DoJE=T BraDBF=F KetDBF=T FulRan=T
         wScrn=  0.000000 ICntrl=       500 IOpCl=  0 I1Cent=   200000004 NGrid=           0
         NMat0=    1 NMatS0=      1 NMatT0=    0 NMatD0=    1 NMtDS0=    0 NMtDT0=    0
 Petite list used in FoFCou.
 Requested convergence on RMS density matrix=1.00D-08 within 128 cycles.
 Requested convergence on MAX density matrix=1.00D-06.
 Requested convergence on             energy=1.00D-06.
 No special actions if energy rises.
 Integral accuracy reduced to 1.0D-05 until final iterations.
 Initial convergence to 1.0D-05 achieved.  Increase integral accuracy.
 SCF Done:  E(RwB97XD) =  -1281.50073104     A.U. after   14 cycles
            NFock= 14  Conv=0.58D-08     -V/T= 2.0039
 DoSCS=F DFT=T ScalE2(SS,OS)=  1.000000  1.000000
 Range of M.O.s used for correlation:     1   790
 NBasis=   790 NAE=    74 NBE=    74 NFC=     0 NFV=     0
 NROrb=    790 NOA=    74 NOB=    74 NVA=   716 NVB=   716

 **** Warning!!: The largest alpha MO coefficient is  0.22662488D+02

   1 Symmetry operations used in ECPInt.
 ECPInt:  NShTT=   44551 NPrTT=  121227 LenC2=   39123 LenP2D=   78428.
 LDataN:  DoStor=T MaxTD1= 7 Len=  274
 Number of processors reduced to   2 by ecpmxn.
 Symmetrizing basis deriv contribution to polar:
 IMax=3 JMax=2 DiffMx= 0.00D+00
 G2DrvN: will do    18 centers at a time, making    2 passes.
 Calling FoFCou, ICntrl=  3107 FMM=F I1Cent=   0 AccDes= 0.00D+00.
 Calling FoFCou, ICntrl=  3107 FMM=F I1Cent=   0 AccDes= 0.00D+00.
 End of G2Drv F.D. properties file   721 does not exist.
 End of G2Drv F.D. properties file   722 does not exist.
 End of G2Drv F.D. properties file   788 does not exist.
          IDoAtm=11111111111111111111111111111111111
          Differentiating once with respect to electric field.
                with respect to dipole field.
          Differentiating once with respect to nuclear coordinates.
 CalDSu exits because no D1Ps are significant.
          There are   108 degrees of freedom in the 1st order CPHF.  IDoFFX=6 NUNeed=     3.
    105 vectors produced by pass  0 Test12= 5.30D-14 1.00D-09 XBig12= 4.86D+01 8.31D-01.
 AX will form    52 AO Fock derivatives at one time.
    105 vectors produced by pass  1 Test12= 5.30D-14 1.00D-09 XBig12= 4.94D+00 2.66D-01.
    105 vectors produced by pass  2 Test12= 5.30D-14 1.00D-09 XBig12= 1.34D-01 6.23D-02.
    105 vectors produced by pass  3 Test12= 5.30D-14 1.00D-09 XBig12= 1.75D-03 8.17D-03.
    105 vectors produced by pass  4 Test12= 5.30D-14 1.00D-09 XBig12= 1.56D-05 4.51D-04.
    105 vectors produced by pass  5 Test12= 5.30D-14 1.00D-09 XBig12= 1.14D-07 2.54D-05.
    103 vectors produced by pass  6 Test12= 5.30D-14 1.00D-09 XBig12= 7.86D-10 2.17D-06.
     40 vectors produced by pass  7 Test12= 5.30D-14 1.00D-09 XBig12= 5.13D-12 1.89D-07.
      4 vectors produced by pass  8 Test12= 5.30D-14 1.00D-09 XBig12= 2.94D-14 2.05D-08.
      3 vectors produced by pass  9 Test12= 5.30D-14 1.00D-09 XBig12= 1.23D-15 1.94D-09.
 InvSVY:  IOpt=1 It=  1 EMax= 2.76D-15
 Solved reduced A of dimension   780 with   108 vectors.
 Isotropic polarizability for W=    0.000000      135.78 Bohr**3.
 End of Minotr F.D. properties file   721 does not exist.
 End of Minotr F.D. properties file   722 does not exist.
 End of Minotr F.D. properties file   788 does not exist.

 **********************************************************************

            Population analysis using the SCF Density.

 **********************************************************************

 Orbital symmetries:
       Occupied  (A) (A) (A) (A) (A) (A) (A) (A) (A) (A) (A) (A)
                 (A) (A) (A) (A) (A) (A) (A) (A) (A) (A) (A) (A)
                 (A) (A) (A) (A) (A) (A) (A) (A) (A) (A) (A) (A)
                 (A) (A) (A) (A) (A) (A) (A) (A) (A) (A) (A) (A)
                 (A) (A) (A) (A) (A) (A) (A) (A) (A) (A) (A) (A)
                 (A) (A) (A) (A) (A) (A) (A) (A) (A) (A) (A) (A)
                 (A) (A)
       Virtual   (A) (A) (A) (A) (A) (A) (A) (A) (A) (A) (A) (A)
                 (A) (A) (A) (A) (A) (A) (A) (A) (A) (A) (A) (A)
                 (A) (A) (A) (A) (A) (A) (A) (A) (A) (A) (A) (A)
                 (A) (A) (A) (A) (A) (A) (A) (A) (A) (A) (A) (A)
                 (A) (A) (A) (A) (A) (A) (A) (A) (A) (A) (A) (A)
                 (A) (A) (A) (A) (A) (A) (A) (A) (A) (A) (A) (A)
                 (A) (A) (A) (A) (A) (A) (A) (A) (A) (A) (A) (A)
                 (A) (A) (A) (A) (A) (A) (A) (A) (A) (A) (A) (A)
                 (A) (A) (A) (A) (A) (A) (A) (A) (A) (A) (A) (A)
                 (A) (A) (A) (A) (A) (A) (A) (A) (A) (A) (A) (A)
                 (A) (A) (A) (A) (A) (A) (A) (A) (A) (A) (A) (A)
                 (A) (A) (A) (A) (A) (A) (A) (A) (A) (A) (A) (A)
                 (A) (A) (A) (A) (A) (A) (A) (A) (A) (A) (A) (A)
                 (A) (A) (A) (A) (A) (A) (A) (A) (A) (A) (A) (A)
                 (A) (A) (A) (A) (A) (A) (A) (A) (A) (A) (A) (A)
                 (A) (A) (A) (A) (A) (A) (A) (A) (A) (A) (A) (A)
                 (A) (A) (A) (A) (A) (A) (A) (A) (A) (A) (A) (A)
                 (A) (A) (A) (A) (A) (A) (A) (A) (A) (A) (A) (A)
                 (A) (A) (A) (A) (A) (A) (A) (A) (A) (A) (A) (A)
                 (A) (A) (A) (A) (A) (A) (A) (A) (A) (A) (A) (A)
                 (A) (A) (A) (A) (A) (A) (A) (A) (A) (A) (A) (A)
                 (A) (A) (A) (A) (A) (A) (A) (A) (A) (A) (A) (A)
                 (A) (A) (A) (A) (A) (A) (A) (A) (A) (A) (A) (A)
                 (A) (A) (A) (A) (A) (A) (A) (A) (A) (A) (A) (A)
                 (A) (A) (A) (A) (A) (A) (A) (A) (A) (A) (A) (A)
                 (A) (A) (A) (A) (A) (A) (A) (A) (A) (A) (A) (A)
                 (A) (A) (A) (A) (A) (A) (A) (A) (A) (A) (A) (A)
                 (A) (A) (A) (A) (A) (A) (A) (A) (A) (A) (A) (A)
                 (A) (A) (A) (A) (A) (A) (A) (A) (A) (A) (A) (A)
                 (A) (A) (A) (A) (A) (A) (A) (A) (A) (A) (A) (A)
                 (A) (A) (A) (A) (A) (A) (A) (A) (A) (A) (A) (A)
                 (A) (A) (A) (A) (A) (A) (A) (A) (A) (A) (A) (A)
                 (A) (A) (A) (A) (A) (A) (A) (A) (A) (A) (A) (A)
                 (A) (A) (A) (A) (A) (A) (A) (A) (A) (A) (A) (A)
                 (A) (A) (A) (A) (A) (A) (A) (A) (A) (A) (A) (A)
                 (A) (A) (A) (A) (A) (A) (A) (A) (A) (A) (A) (A)
                 (A) (A) (A) (A) (A) (A) (A) (A) (A) (A) (A) (A)
                 (A) (A) (A) (A) (A) (A) (A) (A) (A) (A) (A) (A)
                 (A) (A) (A) (A) (A) (A) (A) (A) (A) (A) (A) (A)
                 (A) (A) (A) (A) (A) (A) (A) (A) (A) (A) (A) (A)
                 (A) (A) (A) (A) (A) (A) (A) (A) (A) (A) (A) (A)
                 (A) (A) (A) (A) (A) (A) (A) (A) (A) (A) (A) (A)
                 (A) (A) (A) (A) (A) (A) (A) (A) (A) (A) (A) (A)
                 (A) (A) (A) (A) (A) (A) (A) (A) (A) (A) (A) (A)
                 (A) (A) (A) (A) (A) (A) (A) (A) (A) (A) (A) (A)
                 (A) (A) (A) (A) (A) (A) (A) (A) (A) (A) (A) (A)
                 (A) (A) (A) (A) (A) (A) (A) (A) (A) (A) (A) (A)
                 (A) (A) (A) (A) (A) (A) (A) (A) (A) (A) (A) (A)
                 (A) (A) (A) (A) (A) (A) (A) (A) (A) (A) (A) (A)
                 (A) (A) (A) (A) (A) (A) (A) (A) (A) (A) (A) (A)
                 (A) (A) (A) (A) (A) (A) (A) (A) (A) (A) (A) (A)
                 (A) (A) (A) (A) (A) (A) (A) (A) (A) (A) (A) (A)
                 (A) (A) (A) (A) (A) (A) (A) (A) (A) (A) (A) (A)
                 (A) (A) (A) (A) (A) (A) (A) (A) (A) (A) (A) (A)
                 (A) (A) (A) (A) (A) (A) (A) (A) (A) (A) (A) (A)
                 (A) (A) (A) (A) (A) (A) (A) (A) (A) (A) (A) (A)
                 (A) (A) (A) (A) (A) (A) (A) (A) (A) (A) (A) (A)
                 (A) (A) (A) (A) (A) (A) (A) (A) (A) (A) (A) (A)
                 (A) (A) (A) (A) (A) (A) (A) (A) (A) (A) (A) (A)
                 (A) (A) (A) (A) (A) (A) (A) (A)
 The electronic state is 1-A.
 Alpha  occ. eigenvalues --  -66.34042 -19.32123 -19.27234 -19.26447 -19.26344
 Alpha  occ. eigenvalues --  -19.25968 -19.25482 -19.25412 -19.25311 -19.25144
 Alpha  occ. eigenvalues --  -19.18300 -10.35528 -10.34758 -10.34444 -10.34067
 Alpha  occ. eigenvalues --  -10.33995 -10.33418  -5.45172  -3.79902  -3.79579
 Alpha  occ. eigenvalues --   -3.79564  -1.20176  -1.15854  -1.14811  -1.13577
 Alpha  occ. eigenvalues --   -1.13275  -1.12976  -1.12392  -1.11278  -1.10902
 Alpha  occ. eigenvalues --   -0.99964  -0.89665  -0.86307  -0.82173  -0.75833
 Alpha  occ. eigenvalues --   -0.72005  -0.70028  -0.68179  -0.64864  -0.64606
 Alpha  occ. eigenvalues --   -0.63488  -0.63351  -0.61019  -0.59871  -0.59124
 Alpha  occ. eigenvalues --   -0.58870  -0.57807  -0.56305  -0.55686  -0.54156
 Alpha  occ. eigenvalues --   -0.53473  -0.52169  -0.51131  -0.50064  -0.49521
 Alpha  occ. eigenvalues --   -0.48246  -0.47040  -0.46512  -0.45959  -0.45667
 Alpha  occ. eigenvalues --   -0.45288  -0.44814  -0.44253  -0.43617  -0.42161
 Alpha  occ. eigenvalues --   -0.40958  -0.40488  -0.38867  -0.37672  -0.37377
 Alpha  occ. eigenvalues --   -0.36594  -0.36126  -0.35884  -0.33521
 Alpha virt. eigenvalues --    0.07388   0.09056   0.09821   0.11449   0.11941
 Alpha virt. eigenvalues --    0.13098   0.13908   0.14202   0.15423   0.16934
 Alpha virt. eigenvalues --    0.17144   0.17755   0.18264   0.18633   0.20116
 Alpha virt. eigenvalues --    0.20381   0.20628   0.21203   0.22141   0.22964
 Alpha virt. eigenvalues --    0.23441   0.23737   0.24056   0.24752   0.25517
 Alpha virt. eigenvalues --    0.26360   0.26830   0.27695   0.28432   0.29298
 Alpha virt. eigenvalues --    0.29927   0.30810   0.32442   0.32931   0.33482
 Alpha virt. eigenvalues --    0.33749   0.35067   0.35572   0.36622   0.36753
 Alpha virt. eigenvalues --    0.37627   0.38358   0.38885   0.39287   0.40248
 Alpha virt. eigenvalues --    0.40790   0.41363   0.41875   0.41896   0.42819
 Alpha virt. eigenvalues --    0.42984   0.44213   0.44908   0.45509   0.46244
 Alpha virt. eigenvalues --    0.47063   0.47264   0.48516   0.48961   0.49172
 Alpha virt. eigenvalues --    0.49386   0.49962   0.50426   0.50557   0.51434
 Alpha virt. eigenvalues --    0.51850   0.52434   0.52852   0.53537   0.54140
 Alpha virt. eigenvalues --    0.54519   0.54849   0.55277   0.56134   0.56981
 Alpha virt. eigenvalues --    0.57894   0.58213   0.58848   0.59505   0.59854
 Alpha virt. eigenvalues --    0.60447   0.60667   0.61845   0.62590   0.62673
 Alpha virt. eigenvalues --    0.63477   0.63896   0.64404   0.65569   0.66314
 Alpha virt. eigenvalues --    0.66593   0.67705   0.67801   0.68437   0.68862
 Alpha virt. eigenvalues --    0.69378   0.69567   0.70425   0.70913   0.71819
 Alpha virt. eigenvalues --    0.72839   0.73377   0.73570   0.75461   0.76115
 Alpha virt. eigenvalues --    0.76397   0.77790   0.78693   0.79892   0.80005
 Alpha virt. eigenvalues --    0.80924   0.81353   0.82362   0.83330   0.84038
 Alpha virt. eigenvalues --    0.84991   0.85727   0.87103   0.87668   0.88266
 Alpha virt. eigenvalues --    0.89582   0.90075   0.90465   0.90802   0.91336
 Alpha virt. eigenvalues --    0.92626   0.93152   0.93744   0.95240   0.95640
 Alpha virt. eigenvalues --    0.96107   0.96517   0.97744   0.99363   1.00338
 Alpha virt. eigenvalues --    1.01431   1.01981   1.02604   1.03370   1.04955
 Alpha virt. eigenvalues --    1.05502   1.06933   1.07264   1.07947   1.08523
 Alpha virt. eigenvalues --    1.09114   1.09621   1.10120   1.11347   1.11804
 Alpha virt. eigenvalues --    1.12377   1.12978   1.13139   1.14712   1.15318
 Alpha virt. eigenvalues --    1.15809   1.16882   1.18085   1.19163   1.19477
 Alpha virt. eigenvalues --    1.19999   1.20822   1.21600   1.23170   1.23974
 Alpha virt. eigenvalues --    1.24516   1.24973   1.25398   1.26051   1.26844
 Alpha virt. eigenvalues --    1.28254   1.28908   1.29490   1.30419   1.31694
 Alpha virt. eigenvalues --    1.31943   1.33484   1.33812   1.34126   1.35394
 Alpha virt. eigenvalues --    1.35688   1.36484   1.37086   1.37876   1.38661
 Alpha virt. eigenvalues --    1.40567   1.41190   1.41384   1.41886   1.43446
 Alpha virt. eigenvalues --    1.44052   1.45019   1.45656   1.46201   1.46915
 Alpha virt. eigenvalues --    1.47903   1.48236   1.49686   1.50743   1.51517
 Alpha virt. eigenvalues --    1.51751   1.52287   1.53697   1.55437   1.55859
 Alpha virt. eigenvalues --    1.56188   1.57148   1.57575   1.58830   1.60421
 Alpha virt. eigenvalues --    1.61236   1.61404   1.63533   1.64479   1.65436
 Alpha virt. eigenvalues --    1.66245   1.67474   1.68865   1.71013   1.72038
 Alpha virt. eigenvalues --    1.73346   1.75898   1.76389   1.78132   1.79331
 Alpha virt. eigenvalues --    1.81572   1.83591   1.84560   1.86594   1.87443
 Alpha virt. eigenvalues --    1.88570   1.89726   1.91722   1.91861   1.93215
 Alpha virt. eigenvalues --    1.93902   1.94197   1.94607   1.96072   1.96215
 Alpha virt. eigenvalues --    1.97813   1.98465   1.99060   1.99825   2.00911
 Alpha virt. eigenvalues --    2.01989   2.03282   2.03389   2.04360   2.06050
 Alpha virt. eigenvalues --    2.06391   2.07171   2.07722   2.08558   2.08830
 Alpha virt. eigenvalues --    2.10091   2.10786   2.11375   2.11897   2.12233
 Alpha virt. eigenvalues --    2.13459   2.14142   2.15148   2.15781   2.17471
 Alpha virt. eigenvalues --    2.18468   2.19689   2.20628   2.21826   2.22974
 Alpha virt. eigenvalues --    2.23323   2.24572   2.26541   2.27547   2.28126
 Alpha virt. eigenvalues --    2.28223   2.29491   2.30808   2.32146   2.33244
 Alpha virt. eigenvalues --    2.34257   2.35815   2.36145   2.37558   2.37985
 Alpha virt. eigenvalues --    2.41547   2.42675   2.43254   2.44317   2.46269
 Alpha virt. eigenvalues --    2.48199   2.50105   2.53128   2.54968   2.56359
 Alpha virt. eigenvalues --    2.56921   2.60045   2.60673   2.62871   2.64504
 Alpha virt. eigenvalues --    2.66593   2.66747   2.67838   2.70065   2.70584
 Alpha virt. eigenvalues --    2.71408   2.72273   2.75133   2.75313   2.76698
 Alpha virt. eigenvalues --    2.79239   2.79574   2.79911   2.81248   2.81986
 Alpha virt. eigenvalues --    2.83122   2.83947   2.85764   2.86073   2.87360
 Alpha virt. eigenvalues --    2.89715   2.90005   2.91360   2.93061   2.93930
 Alpha virt. eigenvalues --    2.95301   2.96122   2.96899   2.98497   2.99042
 Alpha virt. eigenvalues --    3.00572   3.01990   3.02129   3.03518   3.04126
 Alpha virt. eigenvalues --    3.05065   3.05943   3.07468   3.08383   3.09089
 Alpha virt. eigenvalues --    3.10475   3.11441   3.12951   3.14115   3.14372
 Alpha virt. eigenvalues --    3.15327   3.16158   3.16924   3.17681   3.18408
 Alpha virt. eigenvalues --    3.19658   3.19907   3.20235   3.20917   3.21603
 Alpha virt. eigenvalues --    3.23375   3.24489   3.25997   3.26077   3.27003
 Alpha virt. eigenvalues --    3.28988   3.29527   3.30864   3.31439   3.32144
 Alpha virt. eigenvalues --    3.33357   3.33684   3.34229   3.35405   3.36064
 Alpha virt. eigenvalues --    3.36235   3.37571   3.38153   3.39503   3.39857
 Alpha virt. eigenvalues --    3.40441   3.40603   3.41863   3.42393   3.42650
 Alpha virt. eigenvalues --    3.43158   3.43669   3.44125   3.44967   3.45324
 Alpha virt. eigenvalues --    3.45976   3.47086   3.47838   3.48281   3.48925
 Alpha virt. eigenvalues --    3.49818   3.50461   3.50894   3.51021   3.52197
 Alpha virt. eigenvalues --    3.52792   3.53622   3.56311   3.57294   3.58288
 Alpha virt. eigenvalues --    3.59241   3.60361   3.60940   3.61574   3.62630
 Alpha virt. eigenvalues --    3.63776   3.63810   3.64971   3.66390   3.67162
 Alpha virt. eigenvalues --    3.67976   3.69395   3.70280   3.70995   3.71683
 Alpha virt. eigenvalues --    3.72956   3.74084   3.75080   3.75343   3.77140
 Alpha virt. eigenvalues --    3.77328   3.78056   3.78984   3.80238   3.81976
 Alpha virt. eigenvalues --    3.82281   3.84062   3.84877   3.86307   3.86518
 Alpha virt. eigenvalues --    3.87465   3.88150   3.89030   3.90039   3.90581
 Alpha virt. eigenvalues --    3.91846   3.93349   3.93756   3.95940   3.96265
 Alpha virt. eigenvalues --    3.97589   3.98121   3.98960   3.99784   4.00201
 Alpha virt. eigenvalues --    4.01013   4.02545   4.03432   4.04111   4.05072
 Alpha virt. eigenvalues --    4.05318   4.05681   4.06247   4.06694   4.08503
 Alpha virt. eigenvalues --    4.09104   4.11382   4.12030   4.12739   4.13635
 Alpha virt. eigenvalues --    4.13769   4.14589   4.14661   4.15361   4.16135
 Alpha virt. eigenvalues --    4.16646   4.16776   4.17740   4.18752   4.19238
 Alpha virt. eigenvalues --    4.20513   4.21551   4.21863   4.23426   4.24232
 Alpha virt. eigenvalues --    4.24801   4.25962   4.27099   4.27486   4.28292
 Alpha virt. eigenvalues --    4.30021   4.30363   4.32034   4.32883   4.33432
 Alpha virt. eigenvalues --    4.34354   4.35810   4.35996   4.36456   4.37587
 Alpha virt. eigenvalues --    4.38504   4.39106   4.40465   4.41241   4.42629
 Alpha virt. eigenvalues --    4.43341   4.43914   4.45778   4.47434   4.48429
 Alpha virt. eigenvalues --    4.49289   4.50785   4.52221   4.53394   4.54396
 Alpha virt. eigenvalues --    4.55437   4.57342   4.58202   4.60100   4.61076
 Alpha virt. eigenvalues --    4.61542   4.62752   4.65769   4.66617   4.67999
 Alpha virt. eigenvalues --    4.69731   4.70929   4.71447   4.72233   4.73433
 Alpha virt. eigenvalues --    4.76241   4.77151   4.79353   4.79581   4.80976
 Alpha virt. eigenvalues --    4.81798   4.83322   4.87019   4.88378   4.89954
 Alpha virt. eigenvalues --    4.90482   4.91458   4.92878   4.93633   4.94658
 Alpha virt. eigenvalues --    4.96470   4.97789   4.99358   5.02529   5.03546
 Alpha virt. eigenvalues --    5.04265   5.04850   5.05420   5.06384   5.09605
 Alpha virt. eigenvalues --    5.10321   5.11377   5.12346   5.13676   5.14524
 Alpha virt. eigenvalues --    5.14866   5.15600   5.17498   5.19403   5.20789
 Alpha virt. eigenvalues --    5.22777   5.23969   5.26484   5.27551   5.28002
 Alpha virt. eigenvalues --    5.29374   5.32208   5.33949   5.35219   5.35522
 Alpha virt. eigenvalues --    5.36558   5.37936   5.39213   5.40787   5.43318
 Alpha virt. eigenvalues --    5.43441   5.45235   5.45719   5.47349   5.49453
 Alpha virt. eigenvalues --    5.51017   5.55302   5.56383   5.57224   5.58382
 Alpha virt. eigenvalues --    5.59467   5.60247   5.60503   5.61879   5.63039
 Alpha virt. eigenvalues --    5.64826   5.65592   5.66575   5.67632   5.69308
 Alpha virt. eigenvalues --    5.72304   5.73699   5.74094   5.74549   5.75191
 Alpha virt. eigenvalues --    5.76480   5.79806   5.80765   5.82676   5.83475
 Alpha virt. eigenvalues --    5.84136   5.87172   5.88587   5.90992   5.94078
 Alpha virt. eigenvalues --    5.99535   6.00899   6.06070   6.07704   6.09377
 Alpha virt. eigenvalues --    6.13854   6.14335   6.16815   6.21200   6.25079
 Alpha virt. eigenvalues --    6.28888   6.48544   6.50481   6.53876   6.54842
 Alpha virt. eigenvalues --    6.55492   6.56978   6.58057   6.58909   6.60611
 Alpha virt. eigenvalues --    6.62284   6.62544   6.62850   6.64045   6.65838
 Alpha virt. eigenvalues --    6.66799   6.67607   6.70076   6.70718   6.71786
 Alpha virt. eigenvalues --    6.72374   6.74674   6.74856   6.76748   6.76886
 Alpha virt. eigenvalues --    6.77092   6.78006   6.78452   6.78938   6.79483
 Alpha virt. eigenvalues --    6.79547   6.80592   6.81111   6.81915   6.82410
 Alpha virt. eigenvalues --    6.83861   6.84835   6.86055   6.86143   6.86760
 Alpha virt. eigenvalues --    6.87056   6.89068   6.89360   6.90111   6.90579
 Alpha virt. eigenvalues --    6.93528   6.95334   6.97537   7.00877   7.01434
 Alpha virt. eigenvalues --    7.03170   7.04547   7.05706   7.06382   7.07052
 Alpha virt. eigenvalues --    7.12563   7.14260   7.16000   7.17310   7.19648
 Alpha virt. eigenvalues --    7.21472   7.21650   7.30117   7.32456   7.34360
 Alpha virt. eigenvalues --    7.37564   7.39902   7.41280   7.46748   7.47387
 Alpha virt. eigenvalues --    7.50199   7.50790   7.52558   7.53982   7.55279
 Alpha virt. eigenvalues --    7.57784   7.59014   7.59346   7.61339   7.65416
 Alpha virt. eigenvalues --    7.66510   7.79251   7.79423   7.83371  12.69265
 Alpha virt. eigenvalues --   23.17932  23.24554  23.28629  23.33970  23.46741
 Alpha virt. eigenvalues --   23.47837  43.80181  43.92932  43.96899  44.15136
 Alpha virt. eigenvalues --   44.17202  44.18736  44.31627  44.38072  44.40571
 Alpha virt. eigenvalues --   44.49258
          Condensed to atoms (all electrons):
               1          2          3          4          5          6
     1  Si  11.503724   0.447943  -0.015790   0.314026  -0.024915   0.369417
     2  O    0.447943   7.660743   0.337295  -0.020417   0.000593  -0.021685
     3  H   -0.015790   0.337295   0.497915   0.001155  -0.000400   0.000548
     4  O    0.314026  -0.020417   0.001155   8.087184   0.308512  -0.042746
     5  H   -0.024915   0.000593  -0.000400   0.308512   0.537274   0.002439
     6  O    0.369417  -0.021685   0.000548  -0.042746   0.002439   7.828011
     7  H   -0.012445  -0.000251  -0.000085   0.021412  -0.000709   0.327472
     8  O    0.412075  -0.022141  -0.000542  -0.033130   0.001549  -0.022724
     9  H   -0.015308  -0.000115  -0.000116   0.014580  -0.000300   0.000070
    10  C   -0.008272   0.001092  -0.000211  -0.000188   0.000005   0.002131
    11  H   -0.007036  -0.000008  -0.000005   0.000077  -0.000005   0.000232
    12  C    0.013090  -0.000054  -0.000085  -0.000086  -0.000001  -0.004565
    13  H   -0.000003   0.000002  -0.000002  -0.000000   0.000000  -0.000073
    14  O    0.181436  -0.026392   0.002280   0.000357   0.000036  -0.027685
    15  H   -0.014325   0.002473   0.000199  -0.000072  -0.000034   0.002670
    16  O   -0.002542  -0.000031  -0.000005  -0.000005   0.000001  -0.013862
    17  H   -0.003486  -0.000164  -0.000007   0.000111  -0.000009   0.029751
    18  C   -0.001791  -0.000224  -0.000043   0.000004   0.000001  -0.000090
    19  H   -0.000407  -0.000002  -0.000026  -0.000000   0.000000   0.000013
    20  C   -0.007198   0.000094  -0.000006   0.000054  -0.000012  -0.008104
    21  H   -0.004972  -0.000245  -0.000034   0.000002   0.000028   0.009933
    22  C   -0.000522  -0.000005  -0.000001   0.000009  -0.000001  -0.000892
    23  H    0.000109  -0.000000  -0.000000  -0.000000   0.000000   0.000015
    24  H   -0.000189   0.000001   0.000000   0.000001  -0.000000   0.000814
    25  C    0.001227  -0.000152  -0.000344  -0.000001  -0.000001   0.000012
    26  H    0.000253   0.000181   0.001796   0.000003   0.000000   0.000011
    27  H   -0.000246  -0.000015  -0.000032  -0.000000  -0.000000   0.000002
    28  O    0.000040   0.000000   0.000004   0.000000   0.000000   0.000001
    29  H    0.000001  -0.000000   0.000000   0.000000   0.000000  -0.000000
    30  O    0.000679   0.000000   0.000001   0.000001   0.000000   0.000159
    31  H    0.000124   0.000000   0.000000  -0.000000  -0.000000   0.000023
    32  O    0.000016   0.000000  -0.000000  -0.000000  -0.000000   0.000006
    33  H    0.000007   0.000000   0.000000  -0.000000  -0.000000   0.000003
    34  O    0.000010   0.000001  -0.000014   0.000000  -0.000000   0.000000
    35  H   -0.000001   0.000000   0.000001   0.000000  -0.000000   0.000000
               7          8          9         10         11         12
     1  Si  -0.012445   0.412075  -0.015308  -0.008272  -0.007036   0.013090
     2  O   -0.000251  -0.022141  -0.000115   0.001092  -0.000008  -0.000054
     3  H   -0.000085  -0.000542  -0.000116  -0.000211  -0.000005  -0.000085
     4  O    0.021412  -0.033130   0.014580  -0.000188   0.000077  -0.000086
     5  H   -0.000709   0.001549  -0.000300   0.000005  -0.000005  -0.000001
     6  O    0.327472  -0.022724   0.000070   0.002131   0.000232  -0.004565
     7  H    0.452352  -0.000173  -0.000406   0.000669  -0.000011  -0.001431
     8  O   -0.000173   7.718048   0.332670  -0.005774   0.010414  -0.004611
     9  H   -0.000406   0.332670   0.478510  -0.003475  -0.000049   0.001710
    10  C    0.000669  -0.005774  -0.003475   5.284510   0.395758   0.181577
    11  H   -0.000011   0.010414  -0.000049   0.395758   0.529855  -0.045315
    12  C   -0.001431  -0.004611   0.001710   0.181577  -0.045315   5.240362
    13  H   -0.000005  -0.000123   0.000012  -0.042323  -0.001405   0.416913
    14  O    0.001987  -0.023185   0.002083   0.113100  -0.021295  -0.012260
    15  H   -0.000523   0.001287  -0.000022  -0.040196   0.004869  -0.018346
    16  O    0.000480   0.000041  -0.000003  -0.030096   0.003727   0.190044
    17  H   -0.000824   0.000041  -0.000026  -0.006266   0.000359  -0.049001
    18  C   -0.000014  -0.000326  -0.000145   0.118208  -0.003913   0.022380
    19  H    0.000003  -0.000034  -0.000001  -0.009873   0.007954  -0.024750
    20  C    0.000914  -0.001397  -0.000618  -0.001237  -0.001293   0.120696
    21  H    0.000473   0.003234   0.000692  -0.011831  -0.001587  -0.021511
    22  C   -0.000072   0.000301   0.000056   0.005959  -0.000374  -0.036643
    23  H   -0.000009  -0.000001  -0.000004  -0.000230  -0.000186   0.022650
    24  H    0.000077  -0.000017  -0.000003   0.001234  -0.000181  -0.043251
    25  C    0.000006   0.000575   0.000041   0.004214  -0.016289  -0.005762
    26  H   -0.000001  -0.000121  -0.000000  -0.023541   0.001376  -0.000927
    27  H   -0.000000   0.000173  -0.000016   0.019020   0.006187  -0.001124
    28  O   -0.000000   0.000007  -0.000000  -0.071919   0.010523  -0.032738
    29  H    0.000000   0.000001   0.000000   0.010474  -0.000089  -0.000243
    30  O   -0.000014   0.000566   0.000156  -0.016966   0.028359  -0.074773
    31  H   -0.000002   0.000392  -0.000018   0.000345  -0.001100   0.008309
    32  O   -0.000001  -0.000001   0.000000  -0.000531  -0.000115   0.007041
    33  H   -0.000000   0.000000  -0.000000  -0.000063   0.000014   0.003146
    34  O    0.000000   0.000001   0.000000   0.009860  -0.000371  -0.000644
    35  H   -0.000000   0.000000  -0.000000  -0.002372  -0.000061   0.000060
              13         14         15         16         17         18
     1  Si  -0.000003   0.181436  -0.014325  -0.002542  -0.003486  -0.001791
     2  O    0.000002  -0.026392   0.002473  -0.000031  -0.000164  -0.000224
     3  H   -0.000002   0.002280   0.000199  -0.000005  -0.000007  -0.000043
     4  O   -0.000000   0.000357  -0.000072  -0.000005   0.000111   0.000004
     5  H    0.000000   0.000036  -0.000034   0.000001  -0.000009   0.000001
     6  O   -0.000073  -0.027685   0.002670  -0.013862   0.029751  -0.000090
     7  H   -0.000005   0.001987  -0.000523   0.000480  -0.000824  -0.000014
     8  O   -0.000123  -0.023185   0.001287   0.000041   0.000041  -0.000326
     9  H    0.000012   0.002083  -0.000022  -0.000003  -0.000026  -0.000145
    10  C   -0.042323   0.113100  -0.040196  -0.030096  -0.006266   0.118208
    11  H   -0.001405  -0.021295   0.004869   0.003727   0.000359  -0.003913
    12  C    0.416913  -0.012260  -0.018346   0.190044  -0.049001   0.022380
    13  H    0.501189   0.001643   0.000099  -0.016896   0.003188   0.002322
    14  O    0.001643   7.851106   0.310661  -0.024175   0.003322  -0.012350
    15  H    0.000099   0.310661   0.480007   0.046957  -0.001974   0.015143
    16  O   -0.016896  -0.024175   0.046957   7.916621   0.336328  -0.001603
    17  H    0.003188   0.003322  -0.001974   0.336328   0.471290   0.001019
    18  C    0.002322  -0.012350   0.015143  -0.001603   0.001019   4.996001
    19  H   -0.002636  -0.007457   0.004863   0.007392  -0.000312   0.409846
    20  C   -0.036562   0.003361   0.001394  -0.016875   0.016320  -0.010718
    21  H    0.006129   0.001356  -0.000031  -0.005371   0.000199  -0.000058
    22  C   -0.006293   0.000006  -0.000219   0.002314  -0.006845  -0.001651
    23  H    0.001461  -0.000017  -0.000010  -0.000031  -0.000415   0.000026
    24  H    0.000673   0.000006  -0.000072   0.009426   0.003617  -0.000165
    25  C    0.001565   0.000727  -0.003359   0.000917  -0.000011   0.232073
    26  H   -0.000102   0.008178   0.000803  -0.000100   0.000006  -0.035600
    27  H   -0.000085  -0.000592  -0.000008  -0.000035   0.000003  -0.044654
    28  O    0.026416   0.002516   0.000019   0.000243  -0.000054   0.319783
    29  H   -0.001275  -0.000290  -0.000016  -0.000024  -0.000000  -0.042632
    30  O    0.005680   0.000756  -0.000223   0.002211   0.000068  -0.002005
    31  H   -0.000527  -0.000052   0.000028  -0.000355  -0.000058   0.000312
    32  O    0.026435  -0.000014  -0.000011  -0.002015  -0.000370  -0.000323
    33  H   -0.002225   0.000001   0.000001  -0.000131   0.000002   0.000021
    34  O    0.000028   0.000096  -0.000022   0.000005  -0.000001  -0.093373
    35  H    0.000008   0.000062   0.000003  -0.000000   0.000000   0.010678
              19         20         21         22         23         24
     1  Si  -0.000407  -0.007198  -0.004972  -0.000522   0.000109  -0.000189
     2  O   -0.000002   0.000094  -0.000245  -0.000005  -0.000000   0.000001
     3  H   -0.000026  -0.000006  -0.000034  -0.000001  -0.000000   0.000000
     4  O   -0.000000   0.000054   0.000002   0.000009  -0.000000   0.000001
     5  H    0.000000  -0.000012   0.000028  -0.000001   0.000000  -0.000000
     6  O    0.000013  -0.008104   0.009933  -0.000892   0.000015   0.000814
     7  H    0.000003   0.000914   0.000473  -0.000072  -0.000009   0.000077
     8  O   -0.000034  -0.001397   0.003234   0.000301  -0.000001  -0.000017
     9  H   -0.000001  -0.000618   0.000692   0.000056  -0.000004  -0.000003
    10  C   -0.009873  -0.001237  -0.011831   0.005959  -0.000230   0.001234
    11  H    0.007954  -0.001293  -0.001587  -0.000374  -0.000186  -0.000181
    12  C   -0.024750   0.120696  -0.021511  -0.036643   0.022650  -0.043251
    13  H   -0.002636  -0.036562   0.006129  -0.006293   0.001461   0.000673
    14  O   -0.007457   0.003361   0.001356   0.000006  -0.000017   0.000006
    15  H    0.004863   0.001394  -0.000031  -0.000219  -0.000010  -0.000072
    16  O    0.007392  -0.016875  -0.005371   0.002314  -0.000031   0.009426
    17  H   -0.000312   0.016320   0.000199  -0.006845  -0.000415   0.003617
    18  C    0.409846  -0.010718  -0.000058  -0.001651   0.000026  -0.000165
    19  H    0.633840   0.001011  -0.000040  -0.000091  -0.000001   0.000003
    20  C    0.001011   5.066278   0.393039   0.261953  -0.068898   0.005214
    21  H   -0.000040   0.393039   0.619011  -0.009481  -0.001184   0.001050
    22  C   -0.000091   0.261953  -0.009481   4.688495   0.431750   0.411600
    23  H   -0.000001  -0.068898  -0.001184   0.431750   0.642054  -0.046266
    24  H    0.000003   0.005214   0.001050   0.411600  -0.046266   0.638667
    25  C   -0.042658   0.000972  -0.000053  -0.000021  -0.000002   0.000001
    26  H   -0.005278  -0.000220   0.000012  -0.000004  -0.000000   0.000000
    27  H    0.010258   0.000302  -0.000024   0.000002   0.000000   0.000000
    28  O   -0.045206   0.000118  -0.000027   0.000020   0.000002  -0.000006
    29  H   -0.005255   0.000165   0.000007  -0.000015   0.000000  -0.000000
    30  O   -0.000081   0.281500  -0.042085  -0.012711  -0.005717   0.004728
    31  H    0.000013  -0.023945  -0.011235  -0.004847   0.002168   0.000420
    32  O   -0.000018  -0.106685   0.003086   0.330570  -0.047364  -0.045860
    33  H   -0.000000   0.010444  -0.000885  -0.026352  -0.000539  -0.012705
    34  O    0.006268   0.000005   0.000000  -0.000000   0.000000  -0.000000
    35  H   -0.000708  -0.000004   0.000000   0.000000  -0.000000   0.000000
              25         26         27         28         29         30
     1  Si   0.001227   0.000253  -0.000246   0.000040   0.000001   0.000679
     2  O   -0.000152   0.000181  -0.000015   0.000000  -0.000000   0.000000
     3  H   -0.000344   0.001796  -0.000032   0.000004   0.000000   0.000001
     4  O   -0.000001   0.000003  -0.000000   0.000000   0.000000   0.000001
     5  H   -0.000001   0.000000  -0.000000   0.000000   0.000000   0.000000
     6  O    0.000012   0.000011   0.000002   0.000001  -0.000000   0.000159
     7  H    0.000006  -0.000001  -0.000000  -0.000000   0.000000  -0.000014
     8  O    0.000575  -0.000121   0.000173   0.000007   0.000001   0.000566
     9  H    0.000041  -0.000000  -0.000016  -0.000000   0.000000   0.000156
    10  C    0.004214  -0.023541   0.019020  -0.071919   0.010474  -0.016966
    11  H   -0.016289   0.001376   0.006187   0.010523  -0.000089   0.028359
    12  C   -0.005762  -0.000927  -0.001124  -0.032738  -0.000243  -0.074773
    13  H    0.001565  -0.000102  -0.000085   0.026416  -0.001275   0.005680
    14  O    0.000727   0.008178  -0.000592   0.002516  -0.000290   0.000756
    15  H   -0.003359   0.000803  -0.000008   0.000019  -0.000016  -0.000223
    16  O    0.000917  -0.000100  -0.000035   0.000243  -0.000024   0.002211
    17  H   -0.000011   0.000006   0.000003  -0.000054  -0.000000   0.000068
    18  C    0.232073  -0.035600  -0.044654   0.319783  -0.042632  -0.002005
    19  H   -0.042658  -0.005278   0.010258  -0.045206  -0.005255  -0.000081
    20  C    0.000972  -0.000220   0.000302   0.000118   0.000165   0.281500
    21  H   -0.000053   0.000012  -0.000024  -0.000027   0.000007  -0.042085
    22  C   -0.000021  -0.000004   0.000002   0.000020  -0.000015  -0.012711
    23  H   -0.000002  -0.000000   0.000000   0.000002   0.000000  -0.005717
    24  H    0.000001   0.000000   0.000000  -0.000006  -0.000000   0.004728
    25  C    4.754650   0.434145   0.409524  -0.030263  -0.002230   0.000174
    26  H    0.434145   0.632745  -0.043288   0.005295   0.001712  -0.000010
    27  H    0.409524  -0.043288   0.612833   0.000571  -0.002533  -0.000084
    28  O   -0.030263   0.005295   0.000571   7.824331   0.329457  -0.000110
    29  H   -0.002230   0.001712  -0.002533   0.329457   0.513315   0.000009
    30  O    0.000174  -0.000010  -0.000084  -0.000110   0.000009   7.830022
    31  H   -0.000010  -0.000001   0.000005   0.000032   0.000002   0.322533
    32  O   -0.000005   0.000000   0.000000  -0.000038   0.000002  -0.003977
    33  H   -0.000000  -0.000000  -0.000000  -0.000001  -0.000000  -0.000271
    34  O    0.309155  -0.043063  -0.047911  -0.009711   0.024820  -0.000001
    35  H   -0.028726  -0.000953  -0.009142   0.000020  -0.001576   0.000000
              31         32         33         34         35
     1  Si   0.000124   0.000016   0.000007   0.000010  -0.000001
     2  O    0.000000   0.000000   0.000000   0.000001   0.000000
     3  H    0.000000  -0.000000   0.000000  -0.000014   0.000001
     4  O   -0.000000  -0.000000  -0.000000   0.000000   0.000000
     5  H   -0.000000  -0.000000  -0.000000  -0.000000  -0.000000
     6  O    0.000023   0.000006   0.000003   0.000000   0.000000
     7  H   -0.000002  -0.000001  -0.000000   0.000000  -0.000000
     8  O    0.000392  -0.000001   0.000000   0.000001   0.000000
     9  H   -0.000018   0.000000  -0.000000   0.000000  -0.000000
    10  C    0.000345  -0.000531  -0.000063   0.009860  -0.002372
    11  H   -0.001100  -0.000115   0.000014  -0.000371  -0.000061
    12  C    0.008309   0.007041   0.003146  -0.000644   0.000060
    13  H   -0.000527   0.026435  -0.002225   0.000028   0.000008
    14  O   -0.000052  -0.000014   0.000001   0.000096   0.000062
    15  H    0.000028  -0.000011   0.000001  -0.000022   0.000003
    16  O   -0.000355  -0.002015  -0.000131   0.000005  -0.000000
    17  H   -0.000058  -0.000370   0.000002  -0.000001   0.000000
    18  C    0.000312  -0.000323   0.000021  -0.093373   0.010678
    19  H    0.000013  -0.000018  -0.000000   0.006268  -0.000708
    20  C   -0.023945  -0.106685   0.010444   0.000005  -0.000004
    21  H   -0.011235   0.003086  -0.000885   0.000000   0.000000
    22  C   -0.004847   0.330570  -0.026352  -0.000000   0.000000
    23  H    0.002168  -0.047364  -0.000539   0.000000  -0.000000
    24  H    0.000420  -0.045860  -0.012705  -0.000000   0.000000
    25  C   -0.000010  -0.000005  -0.000000   0.309155  -0.028726
    26  H   -0.000001   0.000000  -0.000000  -0.043063  -0.000953
    27  H    0.000005   0.000000  -0.000000  -0.047911  -0.009142
    28  O    0.000032  -0.000038  -0.000001  -0.009711   0.000020
    29  H    0.000002   0.000002  -0.000000   0.024820  -0.001576
    30  O    0.322533  -0.003977  -0.000271  -0.000001   0.000000
    31  H    0.550909   0.000426  -0.000007   0.000000  -0.000000
    32  O    0.000426   7.826454   0.318126  -0.000000  -0.000000
    33  H   -0.000007   0.318126   0.554231  -0.000000   0.000000
    34  O    0.000000  -0.000000  -0.000000   7.858765   0.325946
    35  H   -0.000000  -0.000000   0.000000   0.325946   0.533253
 Mulliken charges:
               1
     1  Si   0.875271
     2  O   -0.358519
     3  H    0.176555
     4  O   -0.650842
     5  H    0.175950
     6  O   -0.431303
     7  H    0.211134
     8  O   -0.367075
     9  H    0.190046
    10  C    0.127208
    11  H    0.100985
    12  C    0.150145
    13  H    0.116773
    14  O   -0.329311
    15  H    0.207989
    16  O   -0.402553
    17  H    0.204201
    18  C    0.123861
    19  H    0.063370
    20  C    0.119936
    21  H    0.072402
    22  C   -0.025995
    23  H    0.070640
    24  H    0.071182
    25  C   -0.020092
    26  H    0.066690
    27  H    0.090908
    28  O   -0.329324
    29  H    0.176216
    30  O   -0.318576
    31  H    0.156117
    32  O   -0.304837
    33  H    0.157186
    34  O   -0.339849
    35  H    0.173511
 Sum of Mulliken charges =  -0.00000
 Mulliken charges with hydrogens summed into heavy atoms:
               1
     1  Si   0.875271
     2  O   -0.181964
     4  O   -0.474892
     6  O   -0.220170
     8  O   -0.177029
    10  C    0.228193
    12  C    0.266917
    14  O   -0.121323
    16  O   -0.198352
    18  C    0.187231
    20  C    0.192338
    22  C    0.115827
    25  C    0.137506
    28  O   -0.153107
    30  O   -0.162459
    32  O   -0.147651
    34  O   -0.166337
 APT charges:
               1
     1  Si   2.353480
     2  O   -0.874237
     3  H    0.303623
     4  O   -0.870469
     5  H    0.198821
     6  O   -0.919561
     7  H    0.322350
     8  O   -0.852126
     9  H    0.315132
    10  C    0.370543
    11  H    0.055416
    12  C    0.344218
    13  H    0.050453
    14  O   -0.797368
    15  H    0.331840
    16  O   -0.650803
    17  H    0.347953
    18  C    0.404300
    19  H   -0.063719
    20  C    0.401265
    21  H   -0.037824
    22  C    0.424890
    23  H   -0.082337
    24  H   -0.034899
    25  C    0.441891
    26  H   -0.043118
[...]
 8,0.00126360,-0.00224215,0.00111984,0.00008192,0.00119588,0.00108211,-
 0.00046145,-0.00150503,-0.00062166,0.00024239,0.00776634,-0.00884221,-
 0.00254608,-0.00055901,0.00048318,0.00093572,0.00026412,0.00001561,0.0
 0006725,-0.00015903,0.00022706,0.08982369,-0.01428927,-0.16649087,0.00
 970031,0.00116624,-0.00083939,0.02285645,-0.00220237,-0.02324876,-0.00
 081713,0.00067515,0.00307671,0.00008131,-0.00501482,-0.00202527,-0.000
 18832,-0.00021415,-0.00039497,-0.00003178,-0.00008406,0.00005611,0.000
 01900,0.00008419,0.00012062,-0.00072596,0.00027624,0.00088380,0.000092
 69,0.00005939,-0.00021574,-0.01343033,-0.23107161,0.53213442,-0.000012
 94,-0.00025574,0.00080838,0.00003489,0.00014183,-0.00017242,0.00000545
 ,-0.00003023,0.00003072,0.00005470,-0.00000915,-0.00011685,-0.00003145
 ,-0.00001565,-0.00000190,-0.00011004,0.00010232,-0.00037343,0.00002679
 ,-0.00001091,0.00008872,0.00019812,0.00037839,-0.00053056,-0.00018154,
 -0.00019402,0.00006532,-0.00003107,0.00008580,0.00021619,0.00004067,-0
 .00008084,-0.00000678,-0.00398364,0.00139126,0.00231343,0.00046821,0.0
 0010765,0.00012415,-0.00008448,0.00001895,-0.00016130,0.00007937,0.000
 11997,0.00012864,0.00054068,-0.00101652,0.00182270,0.00050863,0.000073
 11,-0.00012232,-0.00004987,-0.00015396,0.00001781,-0.00002110,0.000024
 99,-0.00001960,0.00463193,-0.01791411,0.02704350,-0.00004968,-0.000921
 42,0.00040740,0.00052860,-0.00027429,0.00060185,0.00026399,0.00055035,
 -0.00036365,-0.00018456,0.00002918,0.00009571,0.00006487,-0.00006099,0
 .00001043,-0.00000313,0.00000123,0.00000702,0.00000521,-0.00000558,-0.
 00001178,-0.00016839,0.00012939,0.00001025,0.00007191,0.00004513,-0.00
 006695,-0.08184741,0.12644557,-0.13122686,0.07988995,-0.00014412,-0.00
 012547,0.00093386,0.00003087,0.00007568,-0.00018426,0.00000656,-0.0000
 1892,0.00003862,0.00011750,-0.00007759,-0.00009162,-0.00002444,-0.0000
 0168,0.00000041,0.00003515,-0.00004618,-0.00042399,-0.00000531,0.00004
 554,0.00003648,0.00029421,0.00028282,-0.00065536,-0.00021108,-0.000088
 54,0.00009293,0.00017165,0.00048541,0.00002273,0.00018001,-0.00001826,
 0.00020407,-0.00031591,-0.00011134,-0.00000869,-0.00017105,0.00015324,
 -0.00021046,-0.00016910,-0.00005597,-0.00004036,0.00002775,0.00006826,
 0.00008857,0.00004661,0.00002814,-0.00051245,0.00019848,0.00007176,0.0
 0014525,0.00006125,0.00005563,-0.00015100,-0.00003940,0.00001603,-0.00
 000780,0.00098448,0.00130530,-0.00692304,0.00062534,-0.00001092,-0.000
 38006,-0.00025951,0.00334816,-0.00283772,0.00039047,-0.00114763,0.0005
 8185,-0.00003106,-0.00043703,0.00026028,0.00006807,-0.00002219,0.00010
 583,-0.00000656,-0.00001233,-0.00000877,-0.00000065,-0.00001334,-0.000
 03249,-0.00001472,-0.00011859,-0.00006278,0.00000381,-0.00000853,0.000
 07454,0.10668736,-0.20404132,0.24659808,-0.10859948,0.20121516,0.00031
 627,0.00047118,0.00026699,-0.00007976,-0.00014707,-0.00002468,0.000014
 87,0.00003061,0.00000407,-0.00018984,-0.00010226,-0.00015484,0.0000274
 8,0.00000743,0.00000748,-0.00030892,-0.00036949,0.00011395,0.00025740,
 0.00009394,0.00012205,-0.00007639,-0.00016386,-0.00032646,-0.00003290,
 0.00000482,0.00014150,0.00000109,0.00010335,0.00002990,0.00009195,0.00
 025765,0.00010695,0.00455753,-0.00194605,-0.00348111,0.00039403,-0.000
 44546,0.00032065,-0.00012482,-0.00018959,0.00023379,-0.00006569,-0.000
 04943,-0.00008135,0.00006030,0.00093888,-0.00139977,-0.00022935,0.0002
 3914,-0.00011023,-0.00007714,0.00005539,-0.00002312,0.00001306,-0.0000
 2265,0.00000509,-0.01221920,0.02197444,-0.02684013,0.00026430,0.000229
 43,0.00208508,-0.00221432,0.00038000,0.00008468,0.00031451,-0.00180099
 ,-0.00025527,0.00007738,0.00045123,0.00106525,0.00000394,0.00006590,0.
 00006633,-0.00000099,-0.00000248,-0.00000504,-0.00000087,-0.00000026,-
 0.00001414,0.00009815,-0.00012717,-0.00006570,-0.00002300,0.00000170,0
 .00006850,-0.09135887,0.21719759,-0.30181126,0.09981110,-0.23715719,0.
 32921617,-0.00011437,0.00232079,-0.00011324,-0.00003209,-0.00072418,0.
 00018313,-0.00005353,0.00006064,-0.00006043,-0.00055979,-0.00038241,-0
 .00029916,0.00010007,0.00005989,-0.00001198,-0.00044698,-0.00199312,0.
 00049099,0.00076434,0.00039596,0.00023518,-0.00014916,-0.00079100,-0.0
 0003558,0.00011334,0.00017996,0.00013124,0.00069737,-0.00061600,0.0001
 1989,0.00000921,0.00032385,0.00008481,-0.00191240,0.00292402,-0.001971
 43,0.00134479,-0.00114580,0.00057948,0.00118979,0.00008120,0.00000647,
 -0.00021276,0.00017690,-0.00004084,0.00051526,-0.00156390,0.00133693,-
 0.00078883,0.00122032,-0.00076327,-0.00068266,-0.00034996,-0.00000007,
 0.00002733,-0.00006098,0.00002517,-0.01402957,-0.00851404,-0.00783710,
 0.00140798,-0.00153663,-0.00087646,-0.19814466,-0.04985162,-0.05225226
 ,-0.00789260,-0.00080596,-0.00978498,-0.03736576,-0.01014104,-0.025812
 29,-0.00002355,0.00015337,0.00001098,0.00003440,0.00006619,-0.00001440
 ,-0.00000118,0.00001509,0.00003367,0.00060726,0.00019700,0.00004482,-0
 .00010233,-0.00010389,-0.00006645,0.00569362,-0.00119229,-0.00295153,-
 0.00047017,-0.00001333,0.00064421,0.28565582,0.00203327,0.00041762,-0.
 00038762,-0.00046677,-0.00029087,0.00018916,0.00011216,0.00015435,-0.0
 0005175,-0.00080743,-0.00006483,-0.00029433,0.00009204,-0.00003575,-0.
 00002124,-0.00156995,0.00024644,0.00032466,0.00074899,0.00000765,0.000
 30748,-0.00067153,-0.00049072,-0.00005336,0.00014067,0.00004316,0.0001
 0131,-0.00065190,0.00149467,-0.00039758,0.00001404,-0.00007659,0.00004
 757,0.00061155,0.00222297,0.00049782,-0.00147227,0.00003316,-0.0001965
 0,-0.00101423,-0.00094746,-0.00010413,0.00027658,0.00057539,-0.0000805
 4,-0.00292423,-0.00309131,0.00091045,0.00117041,-0.00079520,-0.0001594
 9,-0.00022051,0.00029065,0.00009628,0.00003306,-0.00000405,0.00000867,
 -0.03614746,-0.00620718,-0.01798176,0.00004392,-0.00681247,-0.00411833
 ,-0.02559697,-0.08364918,0.00826734,0.01909259,0.00857283,0.01009356,-
 0.00207036,0.00323130,-0.00015384,-0.00006237,0.00027452,0.00001744,-0
 .00000306,-0.00000076,0.00000852,0.00001563,-0.00000474,0.00000062,0.0
 0025431,-0.00032290,-0.00013365,-0.00011954,0.00002743,0.00002325,0.00
 178427,0.00259565,-0.00004328,-0.00015995,-0.00086297,-0.00015911,0.08
 726092,0.25066276,0.00060656,0.00083821,-0.00118015,-0.00012945,-0.000
 30701,0.00028634,0.00000758,0.00005772,-0.00007342,-0.00020909,-0.0000
 1961,0.00007951,0.00006885,0.00001610,-0.00001208,-0.00011543,-0.00040
 461,0.00113110,0.00015589,0.00007272,-0.00004794,-0.00045575,-0.000648
 98,0.00043485,0.00016821,0.00016282,0.00002645,0.00082202,0.00024619,0
 .00011594,0.00004196,0.00037632,0.00013185,0.00151854,0.00129593,-0.00
 412485,0.00022266,-0.00074758,0.00033163,0.00008990,0.00012966,0.00071
 804,-0.00028902,-0.00047599,-0.00036363,0.00083899,0.00346237,0.002686
 49,-0.00094521,0.00028190,-0.00064337,-0.00031368,-0.00022025,-0.00015
 496,0.00003746,-0.00007948,0.00009600,-0.02353109,-0.00788012,-0.00944
 651,0.00015196,-0.00396162,-0.00106977,-0.08939882,-0.01608370,-0.1290
 3616,-0.03248147,-0.00784887,-0.02088862,0.00226464,0.00261812,0.01206
 861,0.00002987,0.00015329,0.00000946,-0.00000353,-0.00000260,0.0000069
 6,0.00000550,0.00002174,0.00003341,0.00017451,-0.00006923,0.00013209,-
 0.00008515,-0.00002739,-0.00004873,0.00117099,0.00031339,0.00100006,-0
 .00045557,0.00049953,0.00071532,0.10748460,-0.21838331,0.52445939,-0.0
 0019853,-0.00062270,-0.00047793,0.00007345,0.00022839,0.00001348,-0.00
 000401,-0.00004359,0.00000463,0.00037386,0.00018267,0.00026337,-0.0000
 2542,-0.00001052,0.00000843,0.00068998,0.00046755,0.00045416,-0.000455
 00,-0.00010087,-0.00023000,-0.00000054,0.00009354,0.00023904,0.0000018
 8,-0.00000472,-0.00005181,0.00007881,0.00026153,0.00027462,0.00002114,
 0.00010097,0.00001976,0.00245598,-0.00183542,-0.00268853,-0.00036922,0
 .00056175,0.00048114,-0.00026849,0.00027157,0.00057540,-0.00023051,-0.
 00070297,-0.00028365,-0.00042977,0.00378166,0.00123089,-0.00114116,-0.
 00098989,-0.00029627,0.00033314,0.00003164,-0.00001693,0.00002238,0.00
 000194,0.00001153,0.00037493,-0.00065152,-0.00021332,-0.00008380,0.000
 10455,0.00005598,-0.00597568,0.02022350,-0.03822749,-0.00543391,-0.001
 62871,-0.00383878,0.00036179,0.00108321,-0.00020273,0.00003469,-0.0000
 6998,-0.00000868,-0.00001970,-0.00004040,0.00000840,-0.00000455,-0.000
 00196,-0.00001052,-0.00035213,-0.00009920,-0.00000754,0.00004564,0.000
 05273,0.00004514,-0.00028441,0.00019334,0.00070319,-0.00013507,0.00012
 475,0.00001713,-0.03539478,-0.03991497,0.03241524,0.04604504,-0.001290
 35,0.00013721,-0.00047880,0.00032709,0.00010452,-0.00000717,-0.0000958
 0,-0.00010145,0.00000851,0.00057441,0.00009280,0.00029483,-0.00004003,
 0.00003748,0.00002538,0.00146780,-0.00039836,0.00045225,-0.00055749,0.
 00001945,-0.00025843,0.00021049,-0.00007386,0.00027366,-0.00001051,0.0
 0002660,-0.00003769,0.00028888,-0.00038371,0.00011492,0.00001943,0.000
 26426,0.00006300,-0.00055541,-0.00249885,-0.00379555,0.00064288,-0.001
 32299,-0.00053575,0.00086446,0.00075388,0.00056739,-0.00045804,-0.0009
 0589,-0.00023104,0.00191543,0.00118036,0.00120890,-0.00192507,0.000919
 07,-0.00001145,0.00021948,-0.00013601,-0.00007108,0.00001345,-0.000064
 68,0.00005556,-0.00154855,0.00175882,-0.00223237,0.00016892,-0.0005001
 2,0.00028680,-0.00170120,0.00400451,-0.00922625,-0.00047768,0.00054166
 ,-0.00076294,-0.00142407,0.00000577,0.00007178,0.00001044,-0.00018288,
 -0.00000681,0.00000219,-0.00000640,-0.00000809,-0.00001247,0.00002133,
 0.00001757,-0.00021153,0.00020609,0.00019453,0.00007781,-0.00002669,-0
 .00003229,0.00022406,-0.00101456,0.00028783,-0.00000068,0.00007569,0.0
 0027360,-0.01547707,-0.16686350,0.24683558,0.01888221,0.16410314,-0.00
 060351,-0.00005939,0.00026427,0.00015236,0.00010180,-0.00010696,-0.000
 03546,-0.00004787,0.00003386,0.00014080,-0.00000257,0.00000141,-0.0000
 2938,0.00000525,0.00001045,0.00019938,-0.00000430,-0.00032409,-0.00011
 725,-0.00002734,-0.00001016,0.00019411,0.00012959,-0.00007146,-0.00004
 781,-0.00003318,-0.00000875,0.00000524,-0.00049416,-0.00040980,-0.0000
 4624,-0.00006380,-0.00001370,-0.00154237,-0.00160741,0.00091318,0.0007
 4684,-0.00093921,-0.00004610,0.00057995,0.00042642,-0.00021481,0.00000
 746,0.00003222,0.00018822,0.00103321,0.00096370,-0.00181826,-0.0000074
 2,-0.00005664,0.00014388,0.00008213,-0.00002514,0.00014180,-0.00000761
 ,0.00002449,-0.00004471,0.00093173,0.00030269,-0.00133208,0.00015977,0
 .00044420,0.00062921,-0.00075696,0.01402755,-0.02318321,-0.00306836,-0
 .00200947,0.00030428,0.00111502,0.00018700,0.00253034,-0.00001694,-0.0
 0009620,-0.00002401,0.00000895,0.00001215,-0.00000483,-0.00000784,-0.0
 0000745,-0.00000916,-0.00004872,0.00015642,-0.00002799,0.00004845,-0.0
 0000225,0.00001805,-0.00024714,0.00000412,0.00044930,0.00004216,0.0000
 4289,-0.00004695,-0.00854060,0.22179702,-0.37740733,0.00974310,-0.2333
 3011,0.39949493,0.00218570,-0.00187227,0.00013061,-0.00065017,0.000394
 41,0.00010681,0.00067358,-0.00003657,-0.00023727,-0.00056797,0.0002169
 1,-0.00013943,0.00015072,-0.00007153,0.00000245,-0.00058726,0.00081885
 ,0.00017657,0.00034446,0.00000711,0.00015185,-0.00046528,0.00051968,-0
 .00031703,0.00004864,-0.00004642,0.00010721,0.00014863,-0.00156092,0.0
 0057292,0.00007025,-0.00038194,0.00021962,-0.00044892,-0.00055997,-0.0
 0035842,0.00001350,0.00022158,0.00009220,-0.00037563,0.00237467,0.0000
 4467,-0.00004392,-0.00054719,-0.00053897,0.00026859,0.00080727,0.00030
 468,-0.00000726,-0.00025932,-0.00008179,-0.00539383,0.00511909,0.00088
 434,0.00062059,0.00009100,0.00056219,-0.00011785,0.00002437,0.00045504
 ,0.00006033,-0.00006147,0.00001934,-0.00014167,-0.00012321,-0.00025075
 ,0.00001456,0.00008677,-0.00000425,0.00002670,-0.00003092,0.00000013,-
 0.18456473,0.05214270,-0.05037382,-0.03409163,0.02697973,-0.01031940,-
 0.01501268,0.01399762,-0.00738526,0.00471536,-0.00301463,-0.00084642,0
 .00053327,0.00229776,0.00087125,0.00028506,0.00023114,-0.00023071,-0.0
 0006938,-0.00005424,0.00004521,0.00023044,0.00021434,0.00014117,-0.000
 11286,-0.00013957,-0.00006905,0.26711723,-0.00299296,0.00030444,-0.000
 17534,0.00084993,0.00051889,-0.00022890,-0.00028627,-0.00033864,0.0001
 0445,0.00077063,0.00012267,0.00028278,-0.00011151,-0.00000506,0.000010
 15,0.00124683,-0.00033223,-0.00003669,-0.00070343,-0.00013544,-0.00031
 621,0.00070865,0.00001145,0.00031930,-0.00007007,-0.00003038,-0.000091
 74,-0.00623389,-0.00728477,-0.00264278,-0.00025639,0.00022391,-0.00044
 619,0.00209626,0.00022908,0.00207614,0.00014585,0.00023187,0.00003982,
 0.00181290,0.00020990,-0.00038393,-0.00021263,0.00015796,0.00045256,0.
 00072268,-0.00099176,-0.00126222,-0.00063058,0.00016656,-0.00003338,0.
 03794078,-0.03674847,0.01118057,-0.00002132,0.00263165,0.00026289,-0.0
 0013844,-0.00048770,-0.00106355,0.00000379,0.00001059,0.00004163,0.000
 15598,0.00011648,0.00059499,-0.00001807,-0.00021319,-0.00001321,0.0000
 0624,0.00000896,-0.00004532,0.08374174,-0.12637757,0.02053054,0.003741
 38,0.00594784,-0.00420560,0.01011019,-0.00508507,0.00548015,0.00391632
 ,-0.00158702,-0.00052089,0.00181747,0.00149086,-0.00023426,-0.00015795
 ,-0.00034138,0.00033808,0.00006845,0.00001325,-0.00009357,-0.00017689,
 -0.00038205,-0.00024341,0.00007265,0.00025764,0.00016544,-0.09563681,0
 .58026563,-0.00002931,0.00000642,-0.00077830,-0.00000284,-0.00010211,0
 .00025187,-0.00005159,0.00004720,-0.00014972,-0.00002326,0.00003803,0.
 00011036,0.00000005,0.00001456,-0.00001212,0.00008694,-0.00001209,0.00
 017114,-0.00006303,-0.00002470,-0.00005669,-0.00015094,0.00017612,0.00
 044390,0.00004568,-0.00003174,-0.00003744,-0.00109747,-0.00239384,-0.0
 0084230,0.00037071,-0.00059583,0.00026118,0.00063616,-0.00051525,0.000
 52552,0.00002587,0.00000671,-0.00004219,-0.00019852,-0.00036424,0.0002
 6718,-0.00005169,0.00012357,-0.00002237,-0.00006096,0.00002825,0.00013
 218,-0.00003663,0.00002212,-0.00001639,0.01328450,-0.00738184,0.005347
 28,0.00091069,0.00159662,0.00141588,0.00003337,-0.00023000,-0.00037528
 ,-0.00000627,0.00000229,-0.00000299,-0.00001549,-0.00004127,0.00007226
 ,0.00000585,-0.00004255,-0.00000257,-0.00000307,0.00001477,0.00001231,
 -0.03079142,-0.00540120,-0.08655331,0.00630445,-0.00746742,0.00906466,
 -0.03336257,0.02254170,-0.00148085,-0.00045705,0.00119711,0.00228757,-
 0.00026603,-0.00026722,-0.00235829,-0.00008041,0.00011338,0.00024547,-
 0.00000860,-0.00005926,-0.00003525,0.00001675,0.00002212,0.00004680,-0
 .00000467,0.00000613,-0.00002283,0.08808129,0.21773425,0.21769801,0.00
 000300,0.00034766,0.00000279,0.00000142,-0.00018456,0.00001165,-0.0000
 5797,0.00008922,0.00003289,0.00004028,-0.00007159,-0.00000229,-0.00002
 215,0.00002158,-0.00000085,-0.00002425,-0.00011332,-0.00002147,0.00000
 607,0.00002088,0.00000678,0.00000322,-0.00011935,0.00000421,-0.0000043
 2,0.00002453,-0.00001160,0.00068630,0.00134951,0.00055758,0.00005044,-
 0.00002056,-0.00001086,-0.00034618,0.00007542,-0.00027324,0.00001716,0
 .00000839,0.00000162,0.00004396,-0.00020325,-0.00003054,-0.00000113,0.
 00008536,0.00000403,-0.00002900,-0.00004134,0.00009935,0.00004231,0.00
 002296,0.00000386,-0.00618295,0.00185887,-0.00158988,-0.00007979,-0.00
 025799,0.00005946,0.00005729,0.00010852,0.00007070,-0.00000199,-0.0000
 0380,0.00000261,-0.00000004,0.00002764,-0.00003489,-0.00000195,0.00000
 801,0.00000772,-0.00000375,0.00000511,0.00000266,-0.00205396,0.0344774
 3,0.01760817,-0.00074673,0.00066919,0.00077801,0.00097026,-0.00005026,
 -0.00100783,0.00075031,-0.00170668,0.00029586,0.00092312,0.00125946,-0
 .00103422,-0.00002303,-0.00003349,0.00001924,0.00001998,0.00000563,-0.
 00000785,-0.00001386,-0.00002524,-0.00000387,0.00000684,0.00001609,0.0
 0000199,-0.03485658,-0.04228150,-0.04304049,0.04082769,0.00045541,-0.0
 0018974,-0.00009952,-0.00014012,-0.00003343,0.00006142,0.00009207,0.00
 004477,-0.00004557,-0.00012924,0.00001133,-0.00002246,0.00002545,-0.00
 000131,-0.00000100,-0.00015184,0.00010129,0.00003926,0.00008818,0.0000
 1154,0.00003589,-0.00013133,0.00007480,0.00002438,0.00002292,-0.000003
 37,0.00000787,-0.00086093,-0.00098810,-0.00060807,0.00004152,-0.000094
 48,0.00006741,0.00031421,-0.00019691,0.00020509,0.00002795,-0.00000309
 ,-0.00001608,-0.00023759,0.00036366,0.00005615,0.00003169,-0.00008077,
 -0.00005617,-0.00002570,0.00010321,0.00000621,0.00003459,-0.00003481,-
 0.00001032,0.00428556,-0.00295942,0.00203499,0.00003757,0.00051997,0.0
 0026169,0.00000541,-0.00009760,-0.00011451,-0.00000300,0.00000166,-0.0
 0000155,0.00000275,-0.00003080,0.00001828,0.00000490,-0.00000282,-0.00
 000839,-0.00000180,-0.00000064,0.00000642,-0.00472522,-0.01910501,-0.0
 1253271,-0.00083268,0.00102533,-0.00030610,-0.00171462,0.00142951,0.00
 024859,0.00098884,0.00092805,0.00004900,0.00003946,0.00003734,-0.00055
 755,-0.00001913,0.00007635,0.00004967,-0.00001003,-0.00002126,0.000000
 35,0.00000398,0.00005199,0.00002213,-0.00000274,-0.00003033,-0.0000164
 6,-0.00214801,-0.41257888,-0.21876079,0.00463149,0.43167197,0.00007888
 ,-0.00015620,0.00026664,-0.00002467,0.00009581,-0.00009711,0.00005764,
 -0.00004493,0.00004858,-0.00002889,0.00001076,-0.00004676,0.00001107,-
 0.00001159,0.00000778,-0.00004554,0.00005408,-0.00005354,0.00003602,0.
 00000420,0.00002558,0.00001953,-0.00001248,-0.00017605,-0.00001315,0.0
 0001411,0.00003276,0.00017053,0.00059269,0.00073673,0.00007530,-0.0000
 3847,-0.00000522,-0.00022046,0.00011558,-0.00007434,-0.00001903,-0.000
 01010,-0.00000039,-0.00004439,0.00012668,-0.00008272,-0.00000112,-0.00
 005459,-0.00000740,0.00001456,0.00006358,-0.00000140,0.00001224,-0.000
 02126,0.00001048,-0.00174164,0.00163093,-0.00064632,-0.00000097,0.0002
 2520,0.00029638,-0.00003439,0.00004191,0.00012596,0.00000105,0.0000011
 8,-0.00000461,-0.00000041,0.00000379,-0.00002319,-0.00000025,0.0000175
 6,-0.00000174,0.00000306,-0.00000767,-0.00000463,-0.00310524,0.0140617
 1,0.00332569,-0.00024814,-0.00061545,-0.00020103,-0.00030003,0.0013242
 2,0.00083397,-0.00010322,0.00063007,-0.00017917,-0.00026876,-0.0004278
 6,0.00007842,0.00004766,-0.00001487,-0.00010920,-0.00000690,0.00002138
 ,0.00002153,0.00000374,0.00000656,-0.00001277,-0.00000577,-0.00001240,
 0.00000399,-0.02181700,-0.24757657,-0.14556467,0.02749869,0.22996242,0
 .14147779\\-0.00000060,0.00000131,-0.00000194,-0.00000085,-0.00000233,
 0.00000075,0.00000062,-0.00000102,-0.00000051,-0.00000009,-0.00000073,
 0.00000007,0.00000008,-0.00000169,-0.00000008,0.00000242,0.00000052,0.
 00000019,0.00000007,-0.00000253,-0.00000011,0.00000146,-0.00000098,0.0
 0000071,-0.00000003,-0.00000039,0.00000019,0.00000063,0.00000044,-0.00
 000105,-0.00000082,-0.00000083,-0.00000042,-0.00000236,0.00000003,-0.0
 0000012,0.00000037,-0.00000060,-0.00000041,0.00000104,-0.00000167,0.00
 000407,0.00000126,0.00000616,-0.00000016,-0.00000183,-0.00000529,-0.00
 000135,-0.00000128,-0.00000025,-0.00000042,0.00000046,0.00000086,-0.00
 000066,0.00000049,0.00000046,-0.00000023,-0.00000058,-0.00000022,0.000
 00089,0.00000044,0.00000091,-0.00000010,-0.00000092,-0.00000029,0.0000
 0018,-0.00000111,0.00000034,0.00000055,-0.00000092,0.00000021,0.000000
 16,0.00000135,0.00000034,-0.00000004,0.00000064,0.00000056,-0.00000020
 ,0.00000099,0.00000051,-0.00000046,-0.00000029,0.00000049,0.00000023,0
 .00000100,0.00000440,-0.00000042,-0.00000061,0.00000073,-0.00000014,-0
 .00000077,0.00000057,0.00000048,-0.00000111,0.00000007,0.00000100,-0.0
 0000123,0.00000057,0.00000013,0.00000064,-0.00000157,-0.00000036,0.000
 00142,0.00000093,-0.00000041\\\@
 The archive entry for this job was punched.


 HICKORY, DICKORY, DOCK
 TWO MICE RAN UP THE CLOCK
 THE CLOCK STRUCK ONE...
 THE OTHER ESCAPED WITH MINOR INJURIES.
 Job cpu time:       1 days  1 hours 52 minutes  7.8 seconds.
 Elapsed time:       0 days  6 hours 29 minutes  1.0 seconds.
 File lengths (MBytes):  RWF=   1660 Int=      0 D2E=      0 Chk=     50 Scr=      1
 Normal termination of Gaussian 16 at Sat Feb 10 10:15:23 2024.
