 Entering Gaussian System, Link 0=/opt/software/gaussian/g16.c01/g16
 Initial command:
 /opt/software/gaussian/g16.c01/l1.exe "/scratch/arhender/17065226/Gau-3434.inp" -scrdir="/scratch/arhender/17065226/"
 Entering Link 1 = /opt/software/gaussian/g16.c01/l1.exe PID=      3435.
  
 Copyright (c) 1988-2019, Gaussian, Inc.  All Rights Reserved.
  
 This is part of the Gaussian(R) 16 program.  It is based on
 the Gaussian(R) 09 system (copyright 2009, Gaussian, Inc.),
 the Gaussian(R) 03 system (copyright 2003, Gaussian, Inc.),
 the Gaussian(R) 98 system (copyright 1998, Gaussian, Inc.),
 the Gaussian(R) 94 system (copyright 1995, Gaussian, Inc.),
 the Gaussian 92(TM) system (copyright 1992, Gaussian, Inc.),
 the Gaussian 90(TM) system (copyright 1990, Gaussian, Inc.),
 the Gaussian 88(TM) system (copyright 1988, Gaussian, Inc.),
 the Gaussian 86(TM) system (copyright 1986, Carnegie Mellon
 University), and the Gaussian 82(TM) system (copyright 1983,
 Carnegie Mellon University). Gaussian is a federally registered
 trademark of Gaussian, Inc.
  
 This software contains proprietary and confidential information,
 including trade secrets, belonging to Gaussian, Inc.
  
 This software is provided under written license and may be
 used, copied, transmitted, or stored only in accord with that
 written license.
  
 The following legend is applicable only to US Government
 contracts under FAR:
  
                    RESTRICTED RIGHTS LEGEND
  
 Use, reproduction and disclosure by the US Government is
 subject to restrictions as set forth in subparagraphs (a)
 and (c) of the Commercial Computer Software - Restricted
 Rights clause in FAR 52.227-19.
  
 Gaussian, Inc.
 340 Quinnipiac St., Bldg. 40, Wallingford CT 06492
  
  
 ---------------------------------------------------------------
 Warning -- This program may not be used in any manner that
 competes with the business of Gaussian, Inc. or will provide
 assistance to any competitor of Gaussian, Inc.  The licensee
 of this program is prohibited from giving any competitor of
 Gaussian, Inc. access to this program.  By using this program,
 the user acknowledges that Gaussian, Inc. is engaged in the
 business of creating and licensing software in the field of
 computational chemistry and represents and warrants to the
 licensee that it is not a competitor of Gaussian, Inc. and that
 it will not use this program in any manner prohibited above.
 ---------------------------------------------------------------
  

 Cite this work as:
 Gaussian 16, Revision C.01,
 M. J. Frisch, G. W. Trucks, H. B. Schlegel, G. E. Scuseria, 
 M. A. Robb, J. R. Cheeseman, G. Scalmani, V. Barone, 
 G. A. Petersson, H. Nakatsuji, X. Li, M. Caricato, A. V. Marenich, 
 J. Bloino, B. G. Janesko, R. Gomperts, B. Mennucci, H. P. Hratchian, 
 J. V. Ortiz, A. F. Izmaylov, J. L. Sonnenberg, D. Williams-Young, 
 F. Ding, F. Lipparini, F. Egidi, J. Goings, B. Peng, A. Petrone, 
 T. Henderson, D. Ranasinghe, V. G. Zakrzewski, J. Gao, N. Rega, 
 G. Zheng, W. Liang, M. Hada, M. Ehara, K. Toyota, R. Fukuda, 
 J. Hasegawa, M. Ishida, T. Nakajima, Y. Honda, O. Kitao, H. Nakai, 
 T. Vreven, K. Throssell, J. A. Montgomery, Jr., J. E. Peralta, 
 F. Ogliaro, M. J. Bearpark, J. J. Heyd, E. N. Brothers, K. N. Kudin, 
 V. N. Staroverov, T. A. Keith, R. Kobayashi, J. Normand, 
 K. Raghavachari, A. P. Rendell, J. C. Burant, S. S. Iyengar, 
 J. Tomasi, M. Cossi, J. M. Millam, M. Klene, C. Adamo, R. Cammi, 
 J. W. Ochterski, R. L. Martin, K. Morokuma, O. Farkas, 
 J. B. Foresman, and D. J. Fox, Gaussian, Inc., Wallingford CT, 2019.
 
 ******************************************
 Gaussian 16:  ES64L-G16RevC.01  3-Jul-2019
                18-Feb-2024 
 ******************************************
 %chk=Convert_toMannSiCenteredSN2_IRC_forward.chk
 %mem=1600MB
 %nprocs=4
 Will use up to    4 processors via shared memory.
 ----------------------------------------------------------------------
 # irc=(forward,calcfc,maxpoints=100,maxcycle=100) wb97xd/def2tzvpp geo
 m=connectivity
 ----------------------------------------------------------------------
 1/6=100,10=4,18=10,22=1,26=3,38=1,42=100,44=3,57=2,172=1/1,23;
 2/12=2,17=6,18=5,29=1,40=1/2;
 3/5=44,7=202,11=2,25=1,30=1,71=2,74=-58,140=1/1,2,3;
 4//1;
 5/5=2,38=5/2;
 8/6=4,10=90,11=11/1;
 11/6=1,8=1,9=11,15=111,16=1/1,2,10;
 10/6=1,13=1/2;
 6/7=2,8=2,9=2,10=2,28=1/1;
 7/10=1,25=1/1,2,3,16;
 1/6=100,10=4,18=10,22=1,26=3,42=100,44=3/23(2);
 2/29=1/2;
 99/5=20/99;
 2/29=1/2;
 3/5=44,7=202,11=2,25=1,30=1,71=2,74=-58,140=1/1,2,3;
 4/5=5,16=3,69=1/1;
 5/5=2,38=5/2;
 8/6=4,10=90,11=11/1;
 11/6=1,8=1,9=11,15=111,16=1/1,2,10;
 10/6=1,13=1/2;
 7/10=1,25=1/1,2,3,16;
 1/6=100,18=10,22=1,26=3,42=100,44=3/23(-8);
 2/29=1/2;
 6/7=2,8=2,9=2,10=2,19=2,28=1/1;
 99/5=20,9=1/99;
 ----------------------------------------------------------------------
 Take EG unoptimized geometry with correct imaginary frequency and buil
 d mannitol unfreeze geom from prev modredundant run and perform a TS o
 pt
 ----------------------------------------------------------------------
 Symbolic Z-matrix:
 Charge =  0 Multiplicity = 1
 Si                    1.90021  -1.22995   0.03992 
 O                     2.00947  -2.7303   -0.61831 
 H                     1.2076   -3.24372  -0.66404 
 O                     3.7915   -1.13174   0.39443 
 H                     4.29404  -1.82441  -0.03768 
 O                     2.28059   0.07111  -0.81002 
 H                     3.49871  -0.31809  -0.32166 
 O                     1.41195  -1.19332   1.6049 
 H                     2.12147  -1.18503   2.24284 
 C                    -0.96549  -0.19576   0.11644 
 H                    -0.84218  -0.27907   1.19242 
 C                    -0.64003   1.23706  -0.37038 
 H                    -1.5857    1.75889  -0.50975 
 O                    -0.01261  -1.11327  -0.48807 
 H                     0.05076  -0.79383  -1.40586 
 O                     0.00499   1.1788   -1.62597 
 H                     0.95119   0.95304  -1.46108 
 C                    -2.35415  -0.66782  -0.2989 
 H                    -2.41224  -0.66355  -1.39819 
 C                     0.15114   2.03925   0.66554 
 H                     0.99249   1.4418    1.03388 
 C                     0.73742   3.31298   0.05967 
 H                     1.0495    3.97182   0.87341 
 H                     1.63828   3.04366  -0.50207 
 C                    -2.65169  -2.074     0.19318 
 H                    -1.95389  -2.78946  -0.24937 
 H                    -2.54356  -2.09701   1.28293 
 O                    -3.2772    0.24022   0.24272 
 H                    -4.14691  -0.15165   0.14137 
 O                    -0.77263   2.28088   1.7102 
 H                    -0.31624   2.70139   2.43682 
 O                    -0.16012   4.04964  -0.73391 
 H                    -0.29626   3.5538   -1.54312 
 O                    -3.98566  -2.3567   -0.19266 
 H                    -4.29545  -3.13212   0.27043 
 
 IRC-IRC-IRC-IRC-IRC-IRC-IRC-IRC-IRC-IRC-IRC-IRC-IRC-IRC-IRC-IRC-IRC-IRC
 ------------------------------------------------------------------------
 INPUT DATA FOR L123
 ------------------------------------------------------------------------
 GENERAL PARAMETERS:
 Rxn path following direction = Forward
 Maximum points per path      = 100
 Step size                    =   0.100 bohr
 Integration scheme           = HPC                                 
    Redo corrector integration= Yes                                 
    DWI Weight Power          =  2
    DWI will use Hessian update vectors when possible.
    Max correction cycles     = 100
 Initial Hessian              = CalcFC
 Hessian evaluation           = All updating
 Hessian updating method      = Bofill                              
 ------------------------------------------------------------------------
 IRC-IRC-IRC-IRC-IRC-IRC-IRC-IRC-IRC-IRC-IRC-IRC-IRC-IRC-IRC-IRC-IRC-IRC
                          Input orientation:                          
 ---------------------------------------------------------------------
 Center     Atomic      Atomic             Coordinates (Angstroms)
 Number     Number       Type             X           Y           Z
 ---------------------------------------------------------------------
      1         14           0        1.900214   -1.229950    0.039920
      2          8           0        2.009468   -2.730301   -0.618308
      3          1           0        1.207604   -3.243722   -0.664041
      4          8           0        3.791498   -1.131741    0.394425
      5          1           0        4.294044   -1.824406   -0.037682
      6          8           0        2.280586    0.071111   -0.810017
      7          1           0        3.498713   -0.318085   -0.321662
      8          8           0        1.411951   -1.193315    1.604900
      9          1           0        2.121465   -1.185026    2.242835
     10          6           0       -0.965485   -0.195762    0.116437
     11          1           0       -0.842177   -0.279065    1.192418
     12          6           0       -0.640031    1.237059   -0.370379
     13          1           0       -1.585699    1.758894   -0.509750
     14          8           0       -0.012612   -1.113265   -0.488072
     15          1           0        0.050755   -0.793829   -1.405860
     16          8           0        0.004994    1.178802   -1.625973
     17          1           0        0.951191    0.953035   -1.461081
     18          6           0       -2.354148   -0.667820   -0.298897
     19          1           0       -2.412244   -0.663553   -1.398185
     20          6           0        0.151139    2.039251    0.665543
     21          1           0        0.992485    1.441803    1.033880
     22          6           0        0.737419    3.312978    0.059670
     23          1           0        1.049495    3.971821    0.873413
     24          1           0        1.638281    3.043664   -0.502067
     25          6           0       -2.651689   -2.074001    0.193183
     26          1           0       -1.953892   -2.789455   -0.249373
     27          1           0       -2.543558   -2.097013    1.282930
     28          8           0       -3.277204    0.240215    0.242724
     29          1           0       -4.146905   -0.151646    0.141369
     30          8           0       -0.772629    2.280877    1.710203
     31          1           0       -0.316238    2.701388    2.436815
     32          8           0       -0.160122    4.049636   -0.733909
     33          1           0       -0.296257    3.553804   -1.543121
     34          8           0       -3.985660   -2.356700   -0.192660
     35          1           0       -4.295454   -3.132118    0.270433
 ---------------------------------------------------------------------
                    Distance matrix (angstroms):
                    1          2          3          4          5
     1  Si   0.000000
     2  O    1.642027   0.000000
     3  H    2.242888   0.953246   0.000000
     4  O    1.926726   2.599356   3.501046   0.000000
     5  H    2.467756   2.525284   3.454402   0.958673   0.000000
     6  O    1.599949   2.821022   3.487222   2.276047   2.871149
     7  H    1.875484   2.850375   3.731723   1.122738   1.726904
     8  O    1.639788   2.768033   3.064967   2.670447   3.376805
     9  H    2.214454   3.253699   3.677404   2.491680   3.213979
    10  C    3.047561   3.976693   3.823810   4.856153   5.508074
    11  H    3.123002   4.173627   4.054286   4.778576   5.502908
    12  C    3.564733   4.777160   4.855656   5.082774   5.816215
    13  H    4.624599   5.752381   5.731711   6.171511   6.901758
    14  O    1.987786   2.592407   2.461451   3.905175   4.388150
    15  H    2.387672   2.864737   2.809016   4.165137   4.575970
    16  O    3.488430   4.507149   4.682980   4.874241   5.471552
    17  H    2.814085   3.923924   4.279461   3.982027   4.573282
    18  C    4.304693   4.837044   4.410746   6.202006   6.753102
    19  H    4.581075   4.942792   4.505501   6.474493   6.940666
    20  C    3.760099   5.277337   5.549209   4.835381   5.708418
    21  H    2.991687   4.601134   4.988322   3.855711   4.766200
    22  C    4.689422   6.212808   6.613255   5.403239   6.249142
    23  H    5.336371   6.932908   7.379216   5.813291   6.704733
    24  H    4.315801   5.787051   6.304200   4.782682   5.564785
    25  C    4.632033   4.776571   4.122769   6.514830   6.954049
    26  H    4.167719   3.980934   3.220771   6.014316   6.325570
    27  H    4.695102   4.974516   4.379138   6.469476   6.969299
    28  O    5.385923   6.124887   5.750960   7.202210   7.852712
    29  H    6.143344   6.717700   6.235414   8.002679   8.606963
    30  O    4.718034   6.186593   6.330841   5.848802   6.751268
    31  H    5.110106   6.651761   6.876172   5.978104   6.918139
    32  O    5.719950   7.119553   7.420824   6.613252   7.404640
    33  H    5.496800   6.757338   7.017175   6.512922   7.229271
    34  O    5.997264   6.021820   5.289518   7.894896   8.298244
    35  H    6.485189   6.379918   5.582951   8.331607   8.693936
                    6          7          8          9         10
     6  O    0.000000
     7  H    1.368867   0.000000
     8  O    2.860966   2.971909   0.000000
     9  H    3.305012   3.037276   0.954170   0.000000
    10  C    3.386224   4.487311   2.977052   3.876786   0.000000
    11  H    3.726126   4.597531   2.467202   3.272203   1.086223
    12  C    3.175330   4.421544   3.744206   4.507909   1.547865
    13  H    4.229294   5.495495   4.708841   5.475989   2.144168
    14  O    2.600991   3.604082   2.533046   3.466596   1.454376
    15  H    2.464812   3.645577   3.328231   4.213532   1.925569
    16  O    2.659151   4.018454   4.247942   5.003480   2.422240
    17  H    1.723069   3.066576   3.770856   4.433942   2.735314
    18  C    4.721019   5.863345   4.252539   5.172912   1.524377
    19  H    4.786264   6.018111   4.891179   5.838106   2.146164
    20  C    3.253521   4.211634   3.594652   4.094630   2.558056
    21  H    2.634000   3.349012   2.728711   3.104255   2.712373
    22  C    3.694242   4.577639   4.811383   5.187854   3.900559
    23  H    4.423241   5.082339   5.229252   5.442197   4.690619
    24  H    3.056707   3.846441   4.737354   5.064560   4.201907
    25  C    5.471312   6.416833   4.391096   5.270137   2.525263
    26  H    5.140814   5.986969   4.161116   5.039229   2.799644
    27  H    5.688018   6.499872   4.070183   4.849286   2.732357
    28  O    5.659142   6.822264   5.089077   5.931052   2.355858
    29  H    6.501338   7.661434   5.841907   6.691524   3.181824
    30  O    4.533949   5.396984   4.105300   4.546643   2.951444
    31  H    4.919733   5.592876   4.341363   4.591758   3.768176
    32  O    4.668138   5.712618   5.952308   6.439591   4.403987
    33  H    4.393940   5.557453   5.946692   6.529575   4.154665
    34  O    6.748425   7.758120   5.806797   6.678430   3.726480
    35  H    7.394075   8.307731   6.173672   6.989877   4.442364
                   11         12         13         14         15
    11  H    0.000000
    12  C    2.186739   0.000000
    13  H    2.757440   1.089047   0.000000
    14  O    2.051369   2.435473   3.274808   0.000000
    15  H    2.795238   2.381998   3.161865   0.973853   0.000000
    16  O    3.284266   1.412787   2.027995   2.559043   1.985401
    17  H    3.431515   1.949946   2.826703   2.478963   1.966054
    18  C    2.158983   2.563566   2.554195   2.391025   2.650435
    19  H    3.053550   2.794539   2.709381   2.605529   2.466454
    20  C    2.576599   1.530554   2.115779   3.360952   3.511001
    21  H    2.520418   2.163093   3.021651   3.139256   3.440529
    22  C    4.084240   2.528191   2.852419   4.522631   4.414199
    23  H    4.663713   3.446801   3.708697   5.370271   5.376243
    24  H    4.479339   2.910648   3.470553   4.472773   4.250110
    25  C    2.737627   3.915034   4.039992   2.889957   3.391015
    26  H    3.101085   4.237179   4.570650   2.575880   3.055911
    27  H    2.491551   4.180058   4.358809   3.241897   3.957062
    28  O    2.664756   2.885182   2.394534   3.608813   3.855177
    29  H    3.470183   3.806383   3.260965   4.291070   4.519587
    30  O    2.612708   2.331514   2.421103   4.114637   4.454394
    31  H    3.272344   3.182678   3.343960   4.816506   5.207435
    32  O    4.786814   2.876292   2.707400   5.170855   4.894399
    33  H    4.740473   2.619315   2.439717   4.793236   4.363619
    34  O    4.014535   4.913239   4.774775   4.173549   4.495227
    35  H    4.573302   5.732579   5.645658   4.795189   5.212206
                   16         17         18         19         20
    16  O    0.000000
    17  H    0.986635   0.000000
    18  C    3.276690   3.860454   0.000000
    19  H    3.047819   3.732293   1.100830   0.000000
    20  C    2.452096   2.518428   3.812459   4.258527   0.000000
    21  H    2.849408   2.542721   4.174537   4.683977   1.095664
    22  C    2.816478   2.815619   5.053030   5.278117   1.527477
    23  H    3.890870   3.817407   5.872424   6.215343   2.141280
    24  H    2.721856   2.400527   5.454895   5.563563   2.140969
    25  C    4.576901   4.988014   1.519216   2.139895   4.999781
    26  H    4.634579   4.890192   2.159628   2.459536   5.346459
    27  H    5.068313   5.389403   2.140244   3.043095   4.975062
    28  O    3.891760   4.614151   1.403536   2.063379   3.894720
    29  H    4.704451   5.456991   1.916833   2.375147   4.852625
    30  O    3.598519   3.846006   3.902883   4.584766   1.415290
    31  H    4.350598   4.456087   4.794660   5.515732   1.947889
    32  O    3.010769   3.369382   5.220860   5.265688   2.469210
    33  H    2.395465   2.885629   4.858510   4.720647   2.715185
    34  O    5.520822   6.077478   2.350624   2.606852   6.097049
    35  H    6.377636   6.871237   3.188349   3.524852   6.831644
                   21         22         23         24         25
    21  H    0.000000
    22  C    2.124956   0.000000
    23  H    2.535743   1.092540   0.000000
    24  H    2.311308   1.095277   1.760707   0.000000
    25  C    5.132997   6.365801   7.121337   6.713994   0.000000
    26  H    5.313325   6.676702   7.483036   6.855132   1.093001
    27  H    5.008877   6.444314   7.064593   6.862984   1.095340
    28  O    4.505551   5.058911   5.748302   5.707542   2.397774
    29  H    5.454263   5.988899   6.673937   6.640210   2.435940
    30  O    2.068112   2.463684   2.622908   3.359832   4.979677
    31  H    2.295112   2.671152   2.433814   3.546029   5.769970
    32  O    3.354754   1.406418   2.013135   2.073640   6.675802
    33  H    3.572442   1.922348   2.797396   2.255321   6.343107
    34  O    6.380827   7.383522   8.157173   7.803100   1.417135
    35  H    7.033200   8.180067   8.910556   8.599201   1.956411
                   26         27         28         29         30
    26  H    0.000000
    27  H    1.781891   0.000000
    28  O    3.342486   2.661372   0.000000
    29  H    3.452538   2.767370   0.959275   0.000000
    30  O    5.562696   4.741801   3.548337   4.445689   0.000000
    31  H    6.328260   5.414523   4.431560   5.299329   0.955556
    32  O    7.086999   6.894179   5.018137   5.857587   3.078532
    33  H    6.682699   6.705867   4.801579   5.603156   3.525818
    34  O    2.078118   2.079534   2.726800   2.236032   5.954123
    35  H    2.422917   2.272825   3.522816   2.986961   6.616929
                   31         32         33         34         35
    31  H    0.000000
    32  O    3.449005   0.000000
    33  H    4.070246   0.958752   0.000000
    34  O    6.779606   7.481232   7.097147   0.000000
    35  H    7.386282   8.347890   7.999007   0.954830   0.000000
 Symmetry turned off by external request.
 Stoichiometry    C6H18O10Si
 Framework group  C1[X(C6H18O10Si)]
 Deg. of freedom    99
 Full point group                 C1      NOp   1
 Rotational constants (GHZ):           0.4122169           0.3564248           0.2247769
 Standard basis: def2TZVPP (5D, 7F)
   790 basis functions,  1191 primitive gaussians,   894 cartesian basis functions
    74 alpha electrons       74 beta electrons
       nuclear repulsion energy      1681.8409533390 Hartrees.
 NAtoms=   35 NActive=   35 NUniq=   35 SFac= 1.00D+00 NAtFMM=   60 NAOKFM=F Big=F
 Integral buffers will be    131072 words long.
 Raffenetti 2 integral format.
 Two-electron integral symmetry is turned off.
 Nuclear repulsion after empirical dispersion term =     1681.8131382899 Hartrees.
 One-electron integrals computed using PRISM.
   1 Symmetry operations used in ECPInt.
 ECPInt:  NShTT=   44551 NPrTT=  121227 LenC2=   39383 LenP2D=   79128.
 LDataN:  DoStor=T MaxTD1= 6 Len=  172
 NBasis=   790 RedAO= T EigKep=  3.84D-05  NBF=   790
 NBsUse=   790 1.00D-06 EigRej= -1.00D+00 NBFU=   790
 ExpMin= 7.01D-02 ExpMax= 4.48D+04 ExpMxC= 1.53D+03 IAcc=3 IRadAn=         5 AccDes= 0.00D+00
 Harris functional with IExCor= 4639 and IRadAn=       5 diagonalized for initial guess.
 HarFok:  IExCor= 4639 AccDes= 0.00D+00 IRadAn=         5 IDoV= 1 UseB2=F ITyADJ=14
 ICtDFT=  3500011 ScaDFX=  1.000000  1.000000  1.000000  1.000000
 FoFCou: FMM=F IPFlag=           0 FMFlag=      100000 FMFlg1=           0
         NFxFlg=           0 DoJE=T BraDBF=F KetDBF=T FulRan=T
         wScrn=  0.000000 ICntrl=       500 IOpCl=  0 I1Cent=   200000004 NGrid=           0
         NMat0=    1 NMatS0=      1 NMatT0=    0 NMatD0=    1 NMtDS0=    0 NMtDT0=    0
 Symmetry not used in FoFCou.
 Requested convergence on RMS density matrix=1.00D-08 within 128 cycles.
 Requested convergence on MAX density matrix=1.00D-06.
 Requested convergence on             energy=1.00D-06.
 No special actions if energy rises.
 Integral accuracy reduced to 1.0D-05 until final iterations.
 Initial convergence to 1.0D-05 achieved.  Increase integral accuracy.
 SCF Done:  E(RwB97XD) =  -1281.48943141     A.U. after   14 cycles
            NFock= 14  Conv=0.69D-08     -V/T= 2.0037
 DoSCS=F DFT=T ScalE2(SS,OS)=  1.000000  1.000000
 Range of M.O.s used for correlation:     1   790
 NBasis=   790 NAE=    74 NBE=    74 NFC=     0 NFV=     0
 NROrb=    790 NOA=    74 NOB=    74 NVA=   716 NVB=   716

 **** Warning!!: The largest alpha MO coefficient is  0.22093634D+02

   1 Symmetry operations used in ECPInt.
 ECPInt:  NShTT=   44551 NPrTT=  121227 LenC2=   39383 LenP2D=   79128.
 LDataN:  DoStor=T MaxTD1= 7 Len=  274
 Number of processors reduced to   2 by ecpmxn.
 Symmetrizing basis deriv contribution to polar:
 IMax=3 JMax=2 DiffMx= 0.00D+00
 G2DrvN: will do    18 centers at a time, making    2 passes.
 Calling FoFCou, ICntrl=  3107 FMM=F I1Cent=   0 AccDes= 0.00D+00.
 Calling FoFCou, ICntrl=  3107 FMM=F I1Cent=   0 AccDes= 0.00D+00.
 End of G2Drv F.D. properties file   721 does not exist.
 End of G2Drv F.D. properties file   722 does not exist.
 End of G2Drv F.D. properties file   788 does not exist.
          IDoAtm=11111111111111111111111111111111111
          Differentiating once with respect to nuclear coordinates.
 CalDSu exits because no D1Ps are significant.
          There are   108 degrees of freedom in the 1st order CPHF.  IDoFFX=6 NUNeed=     0.
    102 vectors produced by pass  0 Test12= 5.30D-14 1.00D-09 XBig12= 8.21D-02 3.71D-02.
 AX will form    52 AO Fock derivatives at one time.
    102 vectors produced by pass  1 Test12= 5.30D-14 1.00D-09 XBig12= 2.34D-02 2.09D-02.
    102 vectors produced by pass  2 Test12= 5.30D-14 1.00D-09 XBig12= 9.35D-04 4.09D-03.
    102 vectors produced by pass  3 Test12= 5.30D-14 1.00D-09 XBig12= 1.08D-05 4.65D-04.
    102 vectors produced by pass  4 Test12= 5.30D-14 1.00D-09 XBig12= 1.01D-07 4.46D-05.
    102 vectors produced by pass  5 Test12= 5.30D-14 1.00D-09 XBig12= 8.59D-10 2.02D-06.
    101 vectors produced by pass  6 Test12= 5.30D-14 1.00D-09 XBig12= 5.81D-12 1.69D-07.
     38 vectors produced by pass  7 Test12= 5.30D-14 1.00D-09 XBig12= 3.80D-14 1.64D-08.
      7 vectors produced by pass  8 Test12= 5.30D-14 1.00D-09 XBig12= 3.55D-15 2.72D-09.
      1 vectors produced by pass  9 Test12= 5.30D-14 1.00D-09 XBig12= 1.01D-15 1.59D-09.
 InvSVY:  IOpt=1 It=  1 EMax= 3.33D-16
 Solved reduced A of dimension   759 with   108 vectors.
 End of Minotr F.D. properties file   721 does not exist.
 End of Minotr F.D. properties file   722 does not exist.
 End of Minotr F.D. properties file   788 does not exist.

 **********************************************************************

            Population analysis using the SCF Density.

 **********************************************************************

 Alpha  occ. eigenvalues --  -66.32031 -19.32809 -19.27892 -19.27289 -19.25582
 Alpha  occ. eigenvalues --  -19.25529 -19.25475 -19.25070 -19.24569 -19.23279
 Alpha  occ. eigenvalues --  -19.18931 -10.35928 -10.34914 -10.34507 -10.33698
 Alpha  occ. eigenvalues --  -10.32733 -10.31716  -5.43459  -3.78291  -3.77894
 Alpha  occ. eigenvalues --   -3.77687  -1.20743  -1.15936  -1.15450  -1.13756
 Alpha  occ. eigenvalues --   -1.13091  -1.12182  -1.11519  -1.10883  -1.10707
 Alpha  occ. eigenvalues --   -1.01811  -0.89634  -0.85355  -0.81400  -0.75573
 Alpha  occ. eigenvalues --   -0.72103  -0.69225  -0.67930  -0.66332  -0.64729
 Alpha  occ. eigenvalues --   -0.64213  -0.63146  -0.61997  -0.60825  -0.58051
 Alpha  occ. eigenvalues --   -0.57915  -0.57445  -0.56467  -0.55010  -0.54570
 Alpha  occ. eigenvalues --   -0.53373  -0.52398  -0.50779  -0.49814  -0.48934
 Alpha  occ. eigenvalues --   -0.48645  -0.47901  -0.46294  -0.45889  -0.45302
 Alpha  occ. eigenvalues --   -0.45188  -0.44515  -0.42833  -0.42606  -0.41997
 Alpha  occ. eigenvalues --   -0.41150  -0.40654  -0.38835  -0.38008  -0.37722
 Alpha  occ. eigenvalues --   -0.36902  -0.36491  -0.35822  -0.33448
 Alpha virt. eigenvalues --    0.07385   0.09006   0.10472   0.11947   0.12612
 Alpha virt. eigenvalues --    0.13174   0.14128   0.14531   0.15639   0.16884
 Alpha virt. eigenvalues --    0.17677   0.18388   0.19387   0.19988   0.20333
 Alpha virt. eigenvalues --    0.21228   0.21357   0.21897   0.23196   0.23336
 Alpha virt. eigenvalues --    0.23663   0.24445   0.24671   0.25698   0.26460
 Alpha virt. eigenvalues --    0.26917   0.28102   0.28622   0.29034   0.29981
 Alpha virt. eigenvalues --    0.31141   0.31468   0.32508   0.33737   0.34090
 Alpha virt. eigenvalues --    0.35038   0.35232   0.36395   0.36730   0.37403
 Alpha virt. eigenvalues --    0.38125   0.38401   0.39460   0.39889   0.40433
 Alpha virt. eigenvalues --    0.40903   0.41351   0.42235   0.42487   0.42965
 Alpha virt. eigenvalues --    0.43734   0.44152   0.44492   0.45575   0.46163
 Alpha virt. eigenvalues --    0.46314   0.47318   0.47794   0.48695   0.48783
 Alpha virt. eigenvalues --    0.49313   0.50063   0.50410   0.50558   0.51242
 Alpha virt. eigenvalues --    0.51706   0.52067   0.53127   0.53351   0.53647
 Alpha virt. eigenvalues --    0.54590   0.54973   0.55802   0.56150   0.56909
 Alpha virt. eigenvalues --    0.57653   0.58081   0.58384   0.58887   0.59836
 Alpha virt. eigenvalues --    0.60523   0.60789   0.61323   0.62549   0.62798
 Alpha virt. eigenvalues --    0.63681   0.64131   0.64874   0.65108   0.66022
 Alpha virt. eigenvalues --    0.66745   0.67196   0.67985   0.68326   0.68944
 Alpha virt. eigenvalues --    0.70074   0.70256   0.71461   0.72587   0.73533
 Alpha virt. eigenvalues --    0.74358   0.75064   0.75465   0.76176   0.76653
 Alpha virt. eigenvalues --    0.77263   0.78161   0.79282   0.79898   0.81133
 Alpha virt. eigenvalues --    0.81854   0.82034   0.82896   0.84207   0.85751
 Alpha virt. eigenvalues --    0.86924   0.87164   0.87613   0.89001   0.89542
 Alpha virt. eigenvalues --    0.90752   0.91347   0.91969   0.92476   0.92725
 Alpha virt. eigenvalues --    0.93524   0.95014   0.95161   0.96211   0.96308
 Alpha virt. eigenvalues --    0.97758   0.98464   0.98787   1.00030   1.00652
 Alpha virt. eigenvalues --    1.01894   1.02927   1.03199   1.04031   1.05263
 Alpha virt. eigenvalues --    1.06030   1.07373   1.07583   1.08347   1.09033
 Alpha virt. eigenvalues --    1.09964   1.10587   1.11105   1.11714   1.12128
 Alpha virt. eigenvalues --    1.13891   1.14602   1.15372   1.15719   1.16205
 Alpha virt. eigenvalues --    1.16947   1.19215   1.19258   1.20161   1.20592
 Alpha virt. eigenvalues --    1.21361   1.21812   1.22268   1.22747   1.24800
 Alpha virt. eigenvalues --    1.25780   1.26601   1.27536   1.27707   1.28136
 Alpha virt. eigenvalues --    1.28924   1.29561   1.29927   1.30698   1.31981
 Alpha virt. eigenvalues --    1.33304   1.34366   1.34705   1.35260   1.36179
 Alpha virt. eigenvalues --    1.37018   1.37697   1.38200   1.39309   1.39831
 Alpha virt. eigenvalues --    1.40828   1.41836   1.42493   1.43219   1.43888
 Alpha virt. eigenvalues --    1.44703   1.45541   1.46285   1.46846   1.47982
 Alpha virt. eigenvalues --    1.48692   1.49766   1.50415   1.51793   1.51940
 Alpha virt. eigenvalues --    1.52314   1.53825   1.54478   1.55438   1.56507
 Alpha virt. eigenvalues --    1.57253   1.58130   1.59271   1.60624   1.62464
 Alpha virt. eigenvalues --    1.63421   1.64752   1.65372   1.66730   1.67170
 Alpha virt. eigenvalues --    1.68089   1.68935   1.71262   1.72516   1.74347
 Alpha virt. eigenvalues --    1.75008   1.76272   1.78267   1.79621   1.80746
 Alpha virt. eigenvalues --    1.82460   1.84397   1.85933   1.87504   1.88320
 Alpha virt. eigenvalues --    1.89476   1.90596   1.91724   1.92946   1.93084
 Alpha virt. eigenvalues --    1.94559   1.95417   1.96559   1.97001   1.97642
 Alpha virt. eigenvalues --    1.98673   1.99157   1.99942   2.01537   2.02026
 Alpha virt. eigenvalues --    2.03022   2.04169   2.04340   2.04516   2.06413
 Alpha virt. eigenvalues --    2.06746   2.07205   2.08693   2.09371   2.10257
 Alpha virt. eigenvalues --    2.10586   2.11492   2.11934   2.12396   2.13291
 Alpha virt. eigenvalues --    2.14568   2.14939   2.15702   2.17281   2.18793
 Alpha virt. eigenvalues --    2.19974   2.20715   2.21915   2.23723   2.24942
 Alpha virt. eigenvalues --    2.25818   2.26230   2.27110   2.28988   2.30141
 Alpha virt. eigenvalues --    2.31654   2.32618   2.33027   2.34999   2.35814
 Alpha virt. eigenvalues --    2.36854   2.38200   2.40049   2.40745   2.41148
 Alpha virt. eigenvalues --    2.43464   2.45359   2.46687   2.47759   2.49538
 Alpha virt. eigenvalues --    2.50061   2.53965   2.54976   2.57648   2.60177
 Alpha virt. eigenvalues --    2.60265   2.62134   2.62687   2.64606   2.66506
 Alpha virt. eigenvalues --    2.67257   2.68102   2.69941   2.72302   2.73467
 Alpha virt. eigenvalues --    2.74294   2.75246   2.76353   2.77044   2.77465
 Alpha virt. eigenvalues --    2.78816   2.80209   2.82188   2.82721   2.84851
 Alpha virt. eigenvalues --    2.85187   2.86611   2.87199   2.87653   2.88170
 Alpha virt. eigenvalues --    2.89844   2.90929   2.93368   2.94019   2.95547
 Alpha virt. eigenvalues --    2.95699   2.97131   2.98917   2.99405   2.99780
 Alpha virt. eigenvalues --    3.02301   3.02453   3.03704   3.04597   3.06511
 Alpha virt. eigenvalues --    3.07044   3.08458   3.09461   3.10449   3.11074
 Alpha virt. eigenvalues --    3.12776   3.13212   3.13275   3.13727   3.15893
 Alpha virt. eigenvalues --    3.16114   3.16898   3.17862   3.18501   3.19078
 Alpha virt. eigenvalues --    3.19551   3.21380   3.22377   3.23441   3.24425
 Alpha virt. eigenvalues --    3.24993   3.25634   3.26119   3.28259   3.29136
 Alpha virt. eigenvalues --    3.29761   3.30734   3.31418   3.31618   3.32306
 Alpha virt. eigenvalues --    3.33510   3.33613   3.35024   3.36068   3.36541
 Alpha virt. eigenvalues --    3.36895   3.38031   3.38525   3.39535   3.40083
 Alpha virt. eigenvalues --    3.41241   3.41952   3.42391   3.42999   3.43790
 Alpha virt. eigenvalues --    3.44117   3.44504   3.44894   3.45643   3.46283
 Alpha virt. eigenvalues --    3.47029   3.47830   3.48111   3.48921   3.50138
 Alpha virt. eigenvalues --    3.50815   3.51744   3.52348   3.53416   3.54443
 Alpha virt. eigenvalues --    3.54527   3.56101   3.57494   3.58164   3.58878
 Alpha virt. eigenvalues --    3.59490   3.60582   3.61003   3.62759   3.63302
 Alpha virt. eigenvalues --    3.64907   3.65782   3.66795   3.67336   3.68657
 Alpha virt. eigenvalues --    3.70562   3.71136   3.72033   3.73595   3.74016
 Alpha virt. eigenvalues --    3.75130   3.75877   3.76207   3.77879   3.78713
 Alpha virt. eigenvalues --    3.79268   3.79889   3.81831   3.82275   3.83533
 Alpha virt. eigenvalues --    3.84249   3.85691   3.86389   3.86643   3.87783
 Alpha virt. eigenvalues --    3.89176   3.89703   3.90307   3.90590   3.92878
 Alpha virt. eigenvalues --    3.93555   3.94568   3.95025   3.96411   3.97830
 Alpha virt. eigenvalues --    3.98135   3.99810   4.00563   4.01341   4.02198
 Alpha virt. eigenvalues --    4.02443   4.02893   4.04159   4.05107   4.05512
 Alpha virt. eigenvalues --    4.06293   4.07412   4.08708   4.08925   4.10241
 Alpha virt. eigenvalues --    4.11176   4.11417   4.12145   4.13022   4.13300
 Alpha virt. eigenvalues --    4.14120   4.14947   4.15692   4.16290   4.17493
 Alpha virt. eigenvalues --    4.17695   4.18005   4.19617   4.19875   4.20315
 Alpha virt. eigenvalues --    4.21031   4.22700   4.23420   4.24391   4.26024
 Alpha virt. eigenvalues --    4.26993   4.28119   4.28655   4.29535   4.31131
 Alpha virt. eigenvalues --    4.31450   4.33283   4.34028   4.35104   4.35361
 Alpha virt. eigenvalues --    4.36344   4.36952   4.37153   4.38660   4.40192
 Alpha virt. eigenvalues --    4.40451   4.42695   4.42730   4.43971   4.44500
 Alpha virt. eigenvalues --    4.46917   4.47273   4.48813   4.50217   4.50732
 Alpha virt. eigenvalues --    4.51384   4.54642   4.54926   4.57102   4.58178
 Alpha virt. eigenvalues --    4.59016   4.59952   4.61876   4.62996   4.64204
 Alpha virt. eigenvalues --    4.64786   4.68141   4.68949   4.69499   4.70981
 Alpha virt. eigenvalues --    4.71931   4.73426   4.74811   4.77296   4.77375
 Alpha virt. eigenvalues --    4.79307   4.79687   4.81755   4.82288   4.85222
 Alpha virt. eigenvalues --    4.87483   4.89539   4.90608   4.90934   4.91515
 Alpha virt. eigenvalues --    4.92376   4.93019   4.94345   4.96067   4.96871
 Alpha virt. eigenvalues --    4.97981   4.99119   5.00591   5.01256   5.02899
 Alpha virt. eigenvalues --    5.04383   5.07083   5.07890   5.08579   5.09587
 Alpha virt. eigenvalues --    5.10462   5.11567   5.13139   5.13389   5.14513
 Alpha virt. eigenvalues --    5.16583   5.17674   5.18160   5.18942   5.21119
 Alpha virt. eigenvalues --    5.24549   5.26125   5.26769   5.27441   5.28889
 Alpha virt. eigenvalues --    5.31645   5.32472   5.34274   5.35816   5.37231
 Alpha virt. eigenvalues --    5.38651   5.39261   5.40925   5.41812   5.44323
 Alpha virt. eigenvalues --    5.45641   5.45878   5.46835   5.48504   5.50694
 Alpha virt. eigenvalues --    5.52573   5.55730   5.57398   5.58684   5.59901
 Alpha virt. eigenvalues --    5.60748   5.61598   5.63661   5.64753   5.66024
 Alpha virt. eigenvalues --    5.67249   5.68451   5.69351   5.72418   5.73175
 Alpha virt. eigenvalues --    5.74031   5.75118   5.76223   5.77914   5.79174
 Alpha virt. eigenvalues --    5.80191   5.81854   5.82638   5.83367   5.85690
 Alpha virt. eigenvalues --    5.87884   5.89320   5.90819   5.95502   5.98511
 Alpha virt. eigenvalues --    6.00580   6.02344   6.06094   6.06878   6.08226
 Alpha virt. eigenvalues --    6.10936   6.13908   6.15635   6.18797   6.22518
 Alpha virt. eigenvalues --    6.24887   6.27839   6.48762   6.52525   6.53243
 Alpha virt. eigenvalues --    6.55406   6.56061   6.58962   6.60369   6.61754
 Alpha virt. eigenvalues --    6.62356   6.62924   6.63479   6.66294   6.66741
 Alpha virt. eigenvalues --    6.67458   6.68242   6.69095   6.71628   6.72264
 Alpha virt. eigenvalues --    6.73521   6.74693   6.76808   6.77208   6.77382
 Alpha virt. eigenvalues --    6.78256   6.79088   6.79350   6.80037   6.80716
 Alpha virt. eigenvalues --    6.81380   6.82283   6.82733   6.84012   6.85672
 Alpha virt. eigenvalues --    6.86190   6.87008   6.87272   6.87775   6.88612
 Alpha virt. eigenvalues --    6.89736   6.90469   6.92092   6.93456   6.94616
 Alpha virt. eigenvalues --    6.97363   6.98454   7.02880   7.03841   7.04644
 Alpha virt. eigenvalues --    7.05380   7.07242   7.08780   7.12071   7.12725
 Alpha virt. eigenvalues --    7.16439   7.18372   7.19338   7.21269   7.22011
 Alpha virt. eigenvalues --    7.24929   7.28305   7.30289   7.36003   7.38882
 Alpha virt. eigenvalues --    7.40035   7.42003   7.44675   7.47133   7.49672
 Alpha virt. eigenvalues --    7.50610   7.52662   7.53381   7.54221   7.58784
 Alpha virt. eigenvalues --    7.60245   7.62807   7.65925   7.66960   7.71149
 Alpha virt. eigenvalues --    7.78019   7.80552   7.84293   7.91015  12.85247
 Alpha virt. eigenvalues --   23.17262  23.25915  23.31902  23.34758  23.46554
 Alpha virt. eigenvalues --   23.47027  43.91753  43.96263  44.01806  44.15058
 Alpha virt. eigenvalues --   44.18321  44.19487  44.32762  44.37302  44.42981
 Alpha virt. eigenvalues --   44.47109
          Condensed to atoms (all electrons):
               1          2          3          4          5          6
     1  Si  11.534723   0.451811  -0.021039   0.237267  -0.012277   0.486564
     2  O    0.451811   7.694371   0.347981  -0.030298   0.002867  -0.018955
     3  H   -0.021039   0.347981   0.491042   0.001836  -0.000222   0.000504
     4  O    0.237267  -0.030298   0.001836   7.758039   0.326839  -0.130619
     5  H   -0.012277   0.002867  -0.000222   0.326839   0.494836   0.005341
     6  O    0.486564  -0.018955   0.000504  -0.130619   0.005341   8.169271
     7  H   -0.018255   0.000713  -0.000280   0.223935  -0.007355   0.146479
     8  O    0.412678  -0.025573  -0.000976  -0.023259   0.000902  -0.023769
     9  H   -0.016798   0.000146   0.000001   0.001683  -0.000190  -0.000594
    10  C   -0.015469   0.000414  -0.000460  -0.000283  -0.000009  -0.005105
    11  H   -0.007013   0.000107  -0.000071   0.000079  -0.000001   0.000283
    12  C    0.027429  -0.000168   0.000070   0.000050   0.000027   0.000739
    13  H    0.000027   0.000000   0.000001  -0.000001   0.000000  -0.000207
    14  O    0.200624  -0.026431   0.003422   0.000763   0.000059  -0.026818
    15  H   -0.011838   0.002997   0.000037  -0.000108  -0.000053   0.001526
    16  O   -0.005577  -0.000018   0.000000  -0.000111   0.000012  -0.035251
    17  H   -0.007524  -0.000466  -0.000053   0.000563  -0.000095   0.068031
    18  C   -0.002150  -0.000154   0.000094   0.000001   0.000002   0.000137
    19  H   -0.000492  -0.000014  -0.000028  -0.000000  -0.000000   0.000023
    20  C   -0.015951   0.000128  -0.000024   0.000159  -0.000049   0.008605
    21  H   -0.000741  -0.000221  -0.000022  -0.000145   0.000037   0.000706
    22  C    0.001512  -0.000008   0.000001  -0.000002   0.000007  -0.012166
    23  H    0.000170  -0.000000   0.000000  -0.000001   0.000000   0.000051
    24  H   -0.001043   0.000006  -0.000000  -0.000028  -0.000004   0.008379
    25  C    0.001241  -0.000293  -0.000337  -0.000000  -0.000000  -0.000034
    26  H    0.000181   0.000306   0.001181   0.000003   0.000000   0.000011
    27  H   -0.000167  -0.000007  -0.000020  -0.000000  -0.000000   0.000004
    28  O    0.000108   0.000000   0.000002   0.000000   0.000000   0.000002
    29  H   -0.000002  -0.000000   0.000000   0.000000   0.000000  -0.000000
    30  O    0.000397   0.000000   0.000000   0.000001   0.000000   0.000208
    31  H    0.000005  -0.000000  -0.000000  -0.000000  -0.000000   0.000019
    32  O   -0.000014  -0.000000  -0.000000  -0.000000  -0.000000   0.000036
    33  H    0.000030   0.000000  -0.000000   0.000000  -0.000000   0.000158
    34  O    0.000011   0.000000  -0.000006   0.000000  -0.000000   0.000000
    35  H   -0.000002   0.000000   0.000000   0.000000  -0.000000   0.000000
               7          8          9         10         11         12
     1  Si  -0.018255   0.412678  -0.016798  -0.015469  -0.007013   0.027429
     2  O    0.000713  -0.025573   0.000146   0.000414   0.000107  -0.000168
     3  H   -0.000280  -0.000976   0.000001  -0.000460  -0.000071   0.000070
     4  O    0.223935  -0.023259   0.001683  -0.000283   0.000079   0.000050
     5  H   -0.007355   0.000902  -0.000190  -0.000009  -0.000001   0.000027
     6  O    0.146479  -0.023769  -0.000594  -0.005105   0.000283   0.000739
     7  H    0.372140   0.000114  -0.000036   0.000443   0.000014  -0.000839
     8  O    0.000114   7.710626   0.341927  -0.011444   0.011544   0.000298
     9  H   -0.000036   0.341927   0.501815  -0.001896  -0.000058   0.000844
    10  C    0.000443  -0.011444  -0.001896   5.362113   0.386580   0.116922
    11  H    0.000014   0.011544  -0.000058   0.386580   0.542618  -0.040730
    12  C   -0.000839   0.000298   0.000844   0.116922  -0.040730   5.235160
    13  H    0.000002  -0.000105   0.000008  -0.009662  -0.001809   0.397455
    14  O    0.001238  -0.023911   0.002018   0.135149  -0.020571  -0.017370
    15  H   -0.000301   0.001084  -0.000082  -0.035538   0.005089  -0.023055
    16  O    0.000335  -0.000001   0.000011  -0.031896   0.003699   0.191175
    17  H    0.000097   0.000121  -0.000040  -0.003854   0.000227  -0.035868
    18  C   -0.000003  -0.000789  -0.000120   0.061397  -0.000286   0.056524
    19  H    0.000002  -0.000029   0.000001  -0.011821   0.008037  -0.024051
    20  C    0.000294  -0.007341  -0.000449   0.005917  -0.000937   0.109321
    21  H    0.000995   0.007095   0.000898  -0.002548  -0.004665  -0.029412
    22  C   -0.000278   0.000982   0.000067   0.005811  -0.000054  -0.030852
    23  H   -0.000006   0.000003  -0.000005  -0.000361  -0.000118   0.017399
    24  H    0.000348  -0.000110  -0.000005   0.002695  -0.000336  -0.008569
    25  C    0.000003   0.000896   0.000034   0.014338  -0.016510  -0.008350
    26  H   -0.000001  -0.000170   0.000007  -0.024521   0.001195  -0.000857
    27  H   -0.000000   0.000107  -0.000016   0.019715   0.006034  -0.000955
    28  O   -0.000000   0.000011   0.000000  -0.068070   0.009748  -0.029955
    29  H    0.000000   0.000001   0.000000   0.010358  -0.000096  -0.000472
    30  O   -0.000004   0.000088   0.000011  -0.012457   0.022107  -0.070330
    31  H    0.000000   0.000014  -0.000008   0.001372  -0.000801   0.007302
    32  O    0.000001  -0.000002   0.000000   0.005859  -0.000169   0.014005
    33  H   -0.000003  -0.000001  -0.000000   0.000108  -0.000018   0.009289
    34  O   -0.000000   0.000001   0.000000   0.010032  -0.000365  -0.000715
    35  H   -0.000000   0.000000  -0.000000  -0.002340  -0.000058   0.000072
              13         14         15         16         17         18
     1  Si   0.000027   0.200624  -0.011838  -0.005577  -0.007524  -0.002150
     2  O    0.000000  -0.026431   0.002997  -0.000018  -0.000466  -0.000154
     3  H    0.000001   0.003422   0.000037   0.000000  -0.000053   0.000094
     4  O   -0.000001   0.000763  -0.000108  -0.000111   0.000563   0.000001
     5  H    0.000000   0.000059  -0.000053   0.000012  -0.000095   0.000002
     6  O   -0.000207  -0.026818   0.001526  -0.035251   0.068031   0.000137
     7  H    0.000002   0.001238  -0.000301   0.000335   0.000097  -0.000003
     8  O   -0.000105  -0.023911   0.001084  -0.000001   0.000121  -0.000789
     9  H    0.000008   0.002018  -0.000082   0.000011  -0.000040  -0.000120
    10  C   -0.009662   0.135149  -0.035538  -0.031896  -0.003854   0.061397
    11  H   -0.001809  -0.020571   0.005089   0.003699   0.000227  -0.000286
    12  C    0.397455  -0.017370  -0.023055   0.191175  -0.035868   0.056524
    13  H    0.520850   0.001192  -0.000132  -0.021795   0.002766  -0.004710
    14  O    0.001192   7.752042   0.313554  -0.022321   0.002473  -0.009527
    15  H   -0.000132   0.313554   0.469959   0.049850  -0.002019   0.014319
    16  O   -0.021795  -0.022321   0.049850   8.005597   0.330840  -0.005602
    17  H    0.002766   0.002473  -0.002019   0.330840   0.412106   0.000851
    18  C   -0.004710  -0.009527   0.014319  -0.005602   0.000851   5.039277
    19  H   -0.002497  -0.007301   0.005157   0.007397  -0.000149   0.409667
    20  C   -0.049020   0.000862   0.003932  -0.036645   0.001287  -0.012268
    21  H    0.006987   0.001289  -0.000364   0.000044   0.000245  -0.000507
    22  C   -0.000380   0.000039  -0.000516   0.016516  -0.000182  -0.001583
    23  H   -0.000442  -0.000008  -0.000008   0.000582   0.000009   0.000082
    24  H    0.003095   0.000044   0.000027  -0.004302  -0.000413  -0.000266
    25  C    0.001965  -0.001732  -0.003014   0.000781  -0.000003   0.227425
    26  H   -0.000117   0.009260   0.000736  -0.000093  -0.000002  -0.033573
    27  H   -0.000057  -0.000669  -0.000048  -0.000032   0.000003  -0.045293
    28  O    0.024709   0.002465   0.000050   0.000243  -0.000053   0.315026
    29  H   -0.001313  -0.000281  -0.000018  -0.000024  -0.000000  -0.042108
    30  O    0.011083   0.000353  -0.000141   0.002096  -0.000152  -0.002324
    31  H   -0.000341  -0.000018   0.000024  -0.000477  -0.000050   0.000223
    32  O    0.017244  -0.000026   0.000014  -0.011359  -0.000307  -0.000522
    33  H   -0.004778  -0.000014  -0.000026   0.014550  -0.000720   0.000175
    34  O    0.000022   0.000101  -0.000024   0.000005  -0.000001  -0.094265
    35  H    0.000008   0.000059   0.000004  -0.000000   0.000000   0.010866
              19         20         21         22         23         24
     1  Si  -0.000492  -0.015951  -0.000741   0.001512   0.000170  -0.001043
     2  O   -0.000014   0.000128  -0.000221  -0.000008  -0.000000   0.000006
     3  H   -0.000028  -0.000024  -0.000022   0.000001   0.000000  -0.000000
     4  O   -0.000000   0.000159  -0.000145  -0.000002  -0.000001  -0.000028
     5  H   -0.000000  -0.000049   0.000037   0.000007   0.000000  -0.000004
     6  O    0.000023   0.008605   0.000706  -0.012166   0.000051   0.008379
     7  H    0.000002   0.000294   0.000995  -0.000278  -0.000006   0.000348
     8  O   -0.000029  -0.007341   0.007095   0.000982   0.000003  -0.000110
     9  H    0.000001  -0.000449   0.000898   0.000067  -0.000005  -0.000005
    10  C   -0.011821   0.005917  -0.002548   0.005811  -0.000361   0.002695
    11  H    0.008037  -0.000937  -0.004665  -0.000054  -0.000118  -0.000336
    12  C   -0.024051   0.109321  -0.029412  -0.030852   0.017399  -0.008569
    13  H   -0.002497  -0.049020   0.006987  -0.000380  -0.000442   0.003095
    14  O   -0.007301   0.000862   0.001289   0.000039  -0.000008   0.000044
    15  H    0.005157   0.003932  -0.000364  -0.000516  -0.000008   0.000027
    16  O    0.007397  -0.036645   0.000044   0.016516   0.000582  -0.004302
    17  H   -0.000149   0.001287   0.000245  -0.000182   0.000009  -0.000413
    18  C    0.409667  -0.012268  -0.000507  -0.001583   0.000082  -0.000266
    19  H    0.634943   0.001358  -0.000053  -0.000161  -0.000001   0.000009
    20  C    0.001358   5.277249   0.405573   0.189403  -0.041495  -0.075622
    21  H   -0.000053   0.405573   0.596017  -0.014339  -0.001769   0.003511
    22  C   -0.000161   0.189403  -0.014339   4.731905   0.391024   0.459726
    23  H   -0.000001  -0.041495  -0.001769   0.391024   0.640630  -0.033216
    24  H    0.000009  -0.075622   0.003511   0.459726  -0.033216   0.614621
    25  C   -0.042900   0.000466  -0.000070   0.000024  -0.000001   0.000003
    26  H   -0.005267  -0.000262   0.000009  -0.000004  -0.000000   0.000000
    27  H    0.010261   0.000322  -0.000032   0.000002   0.000000   0.000000
    28  O   -0.045071  -0.001332  -0.000059   0.000042   0.000002  -0.000003
    29  H   -0.005578   0.000133   0.000008  -0.000011   0.000000   0.000000
    30  O   -0.000070   0.261058  -0.040723  -0.011238  -0.003593   0.005667
    31  H    0.000013  -0.031529  -0.009608  -0.006354   0.003765   0.000627
    32  O    0.000006  -0.086299   0.004144   0.295781  -0.033357  -0.041253
    33  H   -0.000002  -0.006974  -0.000237  -0.042707   0.010136  -0.014228
    34  O    0.006417   0.000001   0.000001  -0.000000   0.000000   0.000000
    35  H   -0.000709  -0.000004  -0.000000   0.000000  -0.000000  -0.000000
              25         26         27         28         29         30
     1  Si   0.001241   0.000181  -0.000167   0.000108  -0.000002   0.000397
     2  O   -0.000293   0.000306  -0.000007   0.000000  -0.000000   0.000000
     3  H   -0.000337   0.001181  -0.000020   0.000002   0.000000   0.000000
     4  O   -0.000000   0.000003  -0.000000   0.000000   0.000000   0.000001
     5  H   -0.000000   0.000000  -0.000000   0.000000   0.000000   0.000000
     6  O   -0.000034   0.000011   0.000004   0.000002  -0.000000   0.000208
     7  H    0.000003  -0.000001  -0.000000  -0.000000   0.000000  -0.000004
     8  O    0.000896  -0.000170   0.000107   0.000011   0.000001   0.000088
     9  H    0.000034   0.000007  -0.000016   0.000000   0.000000   0.000011
    10  C    0.014338  -0.024521   0.019715  -0.068070   0.010358  -0.012457
    11  H   -0.016510   0.001195   0.006034   0.009748  -0.000096   0.022107
    12  C   -0.008350  -0.000857  -0.000955  -0.029955  -0.000472  -0.070330
    13  H    0.001965  -0.000117  -0.000057   0.024709  -0.001313   0.011083
    14  O   -0.001732   0.009260  -0.000669   0.002465  -0.000281   0.000353
    15  H   -0.003014   0.000736  -0.000048   0.000050  -0.000018  -0.000141
    16  O    0.000781  -0.000093  -0.000032   0.000243  -0.000024   0.002096
    17  H   -0.000003  -0.000002   0.000003  -0.000053  -0.000000  -0.000152
    18  C    0.227425  -0.033573  -0.045293   0.315026  -0.042108  -0.002324
    19  H   -0.042900  -0.005267   0.010261  -0.045071  -0.005578  -0.000070
    20  C    0.000466  -0.000262   0.000322  -0.001332   0.000133   0.261058
    21  H   -0.000070   0.000009  -0.000032  -0.000059   0.000008  -0.040723
    22  C    0.000024  -0.000004   0.000002   0.000042  -0.000011  -0.011238
    23  H   -0.000001  -0.000000   0.000000   0.000002   0.000000  -0.003593
    24  H    0.000003   0.000000   0.000000  -0.000003   0.000000   0.005667
    25  C    4.751981   0.434225   0.408171  -0.028984  -0.001455   0.000118
    26  H    0.434225   0.626777  -0.042724   0.005180   0.001681  -0.000002
    27  H    0.408171  -0.042724   0.615658   0.000590  -0.002582  -0.000075
    28  O   -0.028984   0.005180   0.000590   7.824653   0.327454  -0.000006
    29  H   -0.001455   0.001681  -0.002582   0.327454   0.514582   0.000018
    30  O    0.000118  -0.000002  -0.000075  -0.000006   0.000018   7.831162
    31  H    0.000009  -0.000001   0.000001   0.000046   0.000004   0.326249
    32  O    0.000008  -0.000000   0.000000  -0.000017  -0.000001   0.004376
    33  H   -0.000004  -0.000000  -0.000000  -0.000005  -0.000000  -0.000486
    34  O    0.310450  -0.043416  -0.047979  -0.009848   0.024549  -0.000000
    35  H   -0.028796  -0.001091  -0.009108   0.000008  -0.001539   0.000000
              31         32         33         34         35
     1  Si   0.000005  -0.000014   0.000030   0.000011  -0.000002
     2  O   -0.000000  -0.000000   0.000000   0.000000   0.000000
     3  H   -0.000000  -0.000000  -0.000000  -0.000006   0.000000
     4  O   -0.000000  -0.000000   0.000000   0.000000   0.000000
     5  H   -0.000000  -0.000000  -0.000000  -0.000000  -0.000000
     6  O    0.000019   0.000036   0.000158   0.000000   0.000000
     7  H    0.000000   0.000001  -0.000003  -0.000000  -0.000000
     8  O    0.000014  -0.000002  -0.000001   0.000001   0.000000
     9  H   -0.000008   0.000000  -0.000000   0.000000  -0.000000
    10  C    0.001372   0.005859   0.000108   0.010032  -0.002340
    11  H   -0.000801  -0.000169  -0.000018  -0.000365  -0.000058
    12  C    0.007302   0.014005   0.009289  -0.000715   0.000072
    13  H   -0.000341   0.017244  -0.004778   0.000022   0.000008
    14  O   -0.000018  -0.000026  -0.000014   0.000101   0.000059
    15  H    0.000024   0.000014  -0.000026  -0.000024   0.000004
    16  O   -0.000477  -0.011359   0.014550   0.000005  -0.000000
    17  H   -0.000050  -0.000307  -0.000720  -0.000001   0.000000
    18  C    0.000223  -0.000522   0.000175  -0.094265   0.010866
    19  H    0.000013   0.000006  -0.000002   0.006417  -0.000709
    20  C   -0.031529  -0.086299  -0.006974   0.000001  -0.000004
    21  H   -0.009608   0.004144  -0.000237   0.000001  -0.000000
    22  C   -0.006354   0.295781  -0.042707  -0.000000   0.000000
    23  H    0.003765  -0.033357   0.010136   0.000000  -0.000000
    24  H    0.000627  -0.041253  -0.014228   0.000000  -0.000000
    25  C    0.000009   0.000008  -0.000004   0.310450  -0.028796
    26  H   -0.000001  -0.000000  -0.000000  -0.043416  -0.001091
    27  H    0.000001   0.000000  -0.000000  -0.047979  -0.009108
    28  O    0.000046  -0.000017  -0.000005  -0.009848   0.000008
    29  H    0.000004  -0.000001  -0.000000   0.024549  -0.001539
    30  O    0.326249   0.004376  -0.000486  -0.000000   0.000000
    31  H    0.555375   0.000498  -0.000073   0.000000  -0.000000
    32  O    0.000498   7.847891   0.333511   0.000000  -0.000000
    33  H   -0.000073   0.333511   0.513862  -0.000000   0.000000
    34  O    0.000000   0.000000  -0.000000   7.857545   0.326205
    35  H   -0.000000  -0.000000   0.000000   0.326205   0.533290
 Mulliken charges:
               1
     1  Si   0.781571
     2  O   -0.399243
     3  H    0.177364
     4  O   -0.366363
     5  H    0.189328
     6  O   -0.643559
     7  H    0.280208
     8  O   -0.371013
     9  H    0.170826
    10  C    0.098510
    11  H    0.097308
    12  C    0.138467
    13  H    0.109952
    14  O   -0.270003
    15  H    0.208929
    16  O   -0.448229
    17  H    0.232332
    18  C    0.119983
    19  H    0.062905
    20  C    0.100128
    21  H    0.077955
    22  C    0.027995
    23  H    0.050530
    24  H    0.080641
    25  C   -0.019657
    26  H    0.071350
    27  H    0.088896
    28  O   -0.326939
    29  H    0.176689
    30  O   -0.323391
    31  H    0.153711
    32  O   -0.350052
    33  H    0.188458
    34  O   -0.338721
    35  H    0.173134
 Sum of Mulliken charges =  -0.00000
 Mulliken charges with hydrogens summed into heavy atoms:
               1
     1  Si   0.781571
     2  O   -0.221879
     4  O    0.103173
     6  O   -0.643559
     8  O   -0.200187
    10  C    0.195818
    12  C    0.248419
    14  O   -0.061074
    16  O   -0.215897
    18  C    0.182888
    20  C    0.178083
    22  C    0.159166
    25  C    0.140589
    28  O   -0.150250
    30  O   -0.169680
    32  O   -0.161594
    34  O   -0.165587
 APT charges:
               1
     1  Si   0.380959
     2  O   -0.367188
     3  H    0.401230
     4  O   -0.773651
     5  H    0.861912
     6  O   -0.720611
     7  H    0.246439
     8  O   -0.930737
     9  H    0.760467
    10  C   -0.063156
    11  H    0.204518
    12  C   -0.174145
    13  H    0.424670
    14  O   -0.453379
    15  H    0.393756
    16  O   -0.527172
    17  H    0.312126
    18  C   -0.174784
    19  H    0.288694
    20  C    0.054305
    21  H    0.114180
    22  C   -0.760855
    23  H    0.593875
    24  H    0.247986
    25  C   -0.436792
    26  H    0.225791
    27  H    0.276419
    28  O   -0.917739
    29  H    0.840624
    30  O   -0.829130
    31  H    0.695671
    32  O   -0.255457
    33  H    0.173539
    34  O   -1.066657
    35  H    0.954291
 Sum of APT charges =  -0.00000
 APT charges with hydrogens summed into heavy atoms:
               1
     1  Si   0.380959
     2  O    0.034042
     4  O    0.334700
     6  O   -0.720611
     8  O   -0.170270
    10  C    0.141361
    12  C    0.250526
    14  O   -0.059623
    16  O   -0.215046
    18  C    0.113910
    20  C    0.168486
    22  C    0.081006
    25  C    0.065418
    28  O   -0.077115
    30  O   -0.133459
    32  O   -0.081918
    34  O   -0.112366
 Electronic spatial extent (au):  <R**2>=           4977.0607
 Charge=             -0.0000 electrons
 Dipole moment (field-independent basis, Debye):
    X=              0.5554    Y=             -5.5656    Z=              2.0504  Tot=              5.9572
 Quadrupole moment (field-independent basis, Debye-Ang):
   XX=            -99.5306   YY=           -107.9000   ZZ=           -104.0979
   XY=             10.1752   XZ=              2.7620   YZ=              2.2536
 Traceless Quadrupole moment (field-independent basis, Debye-Ang):
   XX=              4.3122   YY=             -4.0571   ZZ=             -0.2551
   XY=             10.1752   XZ=              2.7620   YZ=              2.2536
 Octapole moment (field-independent basis, Debye-Ang**2):
  XXX=             13.1704  YYY=           -106.5646  ZZZ=             22.7602  XYY=             -4.9011
  XXY=            -53.5611  XXZ=             14.3798  XZZ=              9.3501  YZZ=              8.9359
  YYZ=             24.1730  XYZ=             18.4509
 Hexadecapole moment (field-independent basis, Debye-Ang**3):
 XXXX=          -2475.9986 YYYY=          -2670.6413 ZZZZ=           -489.6180 XXXY=             -7.5136
 XXXZ=            -94.0723 YYYX=            165.2864 YYYZ=             59.5662 ZZZX=             36.8791
 ZZZY=             22.1729 XXYY=           -761.6213 XXZZ=           -573.2387 YYZZ=           -452.3785
 XXYZ=            -72.5270 YYXZ=            -11.8733 ZZXY=             -5.8153
 N-N= 1.681813138290D+03 E-N=-6.389464924722D+03  KE= 1.276743023167D+03
  Exact polarizability:       0.000       0.000       0.000       0.000       0.000       0.000
 Approx polarizability:     148.128      -2.716     141.784       0.716       0.360     140.095
   1 Symmetry operations used in ECPInt.
 ECPInt:  NShTT=   44551 NPrTT=  121227 LenC2=   39383 LenP2D=   79128.
 LDataN:  DoStor=T MaxTD1= 8 Len=  415
 Calling FoFJK, ICntrl=    100127 FMM=F ISym2X=0 I1Cent= 0 IOpClX= 0 NMat=1 NMatS=1 NMatT=0.
 -------------------------------------------------------------------
 Center     Atomic                   Forces (Hartrees/Bohr)
 Number     Number              X              Y              Z
 -------------------------------------------------------------------
      1       14          -0.000001115   -0.000000642   -0.000002021
      2        8          -0.000000233    0.000002158    0.000000727
      3        1           0.000001314    0.000000885   -0.000000473
      4        8           0.000000397    0.000000396    0.000000264
      5        1           0.000000718    0.000001613   -0.000000036
      6        8           0.000001872   -0.000001362    0.000000251
      7        1           0.000001071    0.000002394   -0.000000218
      8        8           0.000001307    0.000000262    0.000000340
      9        1           0.000000523    0.000000375    0.000000600
     10        6           0.000000750   -0.000000649   -0.000000298
     11        1          -0.000000521    0.000001017   -0.000000997
     12        6          -0.000002778    0.000001004   -0.000000370
     13        1           0.000000659    0.000000394   -0.000000283
     14        8           0.000001525    0.000001014    0.000004162
     15        1          -0.000001231   -0.000006165   -0.000000107
     16        8           0.000000739    0.000005605   -0.000001461
     17        1          -0.000000985    0.000000677   -0.000000578
     18        6          -0.000000438   -0.000000761   -0.000000328
     19        1           0.000000269   -0.000000590   -0.000000426
     20        6          -0.000000735    0.000000774    0.000001034
     21        1           0.000000297   -0.000001144    0.000000072
     22        6          -0.000000812    0.000000551   -0.000000117
     23        1          -0.000001156    0.000000156    0.000000601
     24        1          -0.000000882    0.000000142    0.000000123
     25        6           0.000001463   -0.000001034    0.000000228
     26        1           0.000000210   -0.000000690   -0.000000183
     27        1           0.000000640   -0.000000843   -0.000000544
     28        8          -0.000000347   -0.000000461    0.000000051
     29        1          -0.000000676   -0.000004445   -0.000000395
     30        8          -0.000000940   -0.000000799   -0.000000830
     31        1          -0.000000688    0.000000027    0.000000830
     32        8          -0.000001057    0.000000647    0.000001421
     33        1          -0.000001424   -0.000000314   -0.000000368
     34        8           0.000001596    0.000001847   -0.000000690
     35        1           0.000000670   -0.000002040    0.000000018
 -------------------------------------------------------------------
 Cartesian Forces:  Max     0.000006165 RMS     0.000001366
 IRC-IRC-IRC-IRC-IRC-IRC-IRC-IRC-IRC-IRC-IRC-IRC-IRC-IRC-IRC-IRC-IRC-IRC
          ******** Start new reaction path calculation ********
 Supplied step size of   0.1000 bohr.
    Integration on MW PES will use step size of   0.1091 sqrt(amu)*bohr.
 Point Number:   0          Path Number:   1
 Calculating another point on the path.
 IRC-IRC-IRC-IRC-IRC-IRC-IRC-IRC-IRC-IRC-IRC-IRC-IRC-IRC-IRC-IRC-IRC-IRC
                          Input orientation:                          
 ---------------------------------------------------------------------
 Center     Atomic      Atomic             Coordinates (Angstroms)
 Number     Number       Type             X           Y           Z
 ---------------------------------------------------------------------
      1         14           0        1.892953   -1.228425    0.046308
      2          8           0        1.999809   -2.727153   -0.613875
      3          1           0        1.197952   -3.240532   -0.660223
      4          8           0        3.779718   -1.128104    0.398858
      5          1           0        4.282747   -1.820912   -0.031673
      6          8           0        2.274621    0.074787   -0.804843
      7          1           0        3.448348   -0.292938   -0.340107
      8          8           0        1.402375   -1.189649    1.609849
      9          1           0        2.113797   -1.182342    2.245931
     10          6           0       -0.974534   -0.192467    0.121362
     11          1           0       -0.850992   -0.275888    1.197293
     12          6           0       -0.649172    1.240322   -0.365268
     13          1           0       -1.594705    1.762210   -0.505017
     14          8           0       -0.021127   -1.109609   -0.483221
     15          1           0        0.040034   -0.792132   -1.401704
     16          8           0       -0.004184    1.182067   -1.621180
     17          1           0        0.941553    0.960476   -1.458025
     18          6           0       -2.363219   -0.664594   -0.293989
     19          1           0       -2.421370   -0.660339   -1.393301
     20          6           0        0.142072    2.042546    0.670512
     21          1           0        0.983351    1.445090    1.039143
     22          6           0        0.728356    3.316280    0.064570
     23          1           0        1.040504    3.975036    0.878293
     24          1           0        1.629376    3.047259   -0.497137
     25          6           0       -2.660743   -2.070772    0.198115
     26          1           0       -1.962939   -2.786250   -0.244411
     27          1           0       -2.552561   -2.093766    1.287843
     28          8           0       -3.286204    0.243487    0.247622
     29          1           0       -4.155928   -0.148402    0.146398
     30          8           0       -0.781650    2.284121    1.715052
     31          1           0       -0.325329    2.704462    2.441832
     32          8           0       -0.169176    4.052882   -0.728961
     33          1           0       -0.305402    3.557469   -1.538377
     34          8           0       -3.994685   -2.353414   -0.187734
     35          1           0       -4.304520   -3.128845    0.275333
 ---------------------------------------------------------------------
                    Distance matrix (angstroms):
                    1          2          3          4          5
     1  Si   0.000000
     2  O    1.641171   0.000000
     3  H    2.242941   0.953247   0.000000
     4  O    1.922040   2.598204   3.499931   0.000000
     5  H    2.463380   2.524290   3.453456   0.958321   0.000000
     6  O    1.602652   2.821854   3.488763   2.271819   2.867759
     7  H    1.855722   2.845806   3.722239   1.163347   1.768066
     8  O    1.639155   2.768717   3.066127   2.668716   3.374853
     9  H    2.211162   3.252372   3.677043   2.487953   3.209299
    10  C    3.049807   3.976421   3.823777   4.853384   5.505839
    11  H    3.124313   4.173260   4.054338   4.775694   5.500249
    12  C    3.567423   4.777003   4.855607   5.080196   5.814315
    13  H    4.627269   5.752110   5.731532   6.168900   6.899802
    14  O    1.989527   2.591853   2.461365   3.901900   4.385565
    15  H    2.391736   2.864559   2.808066   4.164149   4.575586
    16  O    3.491435   4.506956   4.682729   4.871895   5.470118
    17  H    2.821254   3.928245   4.283772   3.983135   4.575389
    18  C    4.306821   4.836579   4.410389   6.199239   6.750908
    19  H    4.583512   4.942272   4.504919   6.471795   6.938743
    20  C    3.762243   5.277392   5.549473   4.833144   5.706537
    21  H    2.993456   4.601441   4.988883   3.853694   4.764392
    22  C    4.691585   6.212887   6.613443   5.401398   6.247696
    23  H    5.338060   6.932977   7.379447   5.811642   6.703222
    24  H    4.318134   5.787458   6.304683   4.781258   5.563822
    25  C    4.633437   4.776076   4.122452   6.512178   6.951783
    26  H    4.168841   3.980372   3.220327   6.011768   6.323427
    27  H    4.696042   4.974110   4.379084   6.466881   6.966851
    28  O    5.388016   6.124443   5.750672   7.199402   7.850400
    29  H    6.145358   6.717222   6.235057   7.999877   8.604664
    30  O    4.719766   6.186540   6.331078   5.846514   6.749108
    31  H    5.111450   6.651771   6.876488   5.976095   6.916040
    32  O    5.722380   7.119453   7.420758   6.611229   7.403194
    33  H    5.499889   6.757602   7.017410   6.511197   7.228296
    34  O    5.998721   6.021232   5.289018   7.892200   8.296011
    35  H    6.486348   6.379389   5.582556   8.329053   8.691726
                    6          7          8          9         10
     6  O    0.000000
     7  H    1.314853   0.000000
     8  O    2.861878   2.965201   0.000000
     9  H    3.303553   3.042968   0.954346   0.000000
    10  C    3.389142   4.448025   2.976518   3.877040   0.000000
    11  H    3.728402   4.565985   2.466338   3.272808   1.086209
    12  C    3.178091   4.375064   3.743619   4.507954   1.547757
    13  H    4.231900   5.448231   4.708356   5.476412   2.144230
    14  O    2.603208   3.567168   2.532529   3.465755   1.454529
    15  H    2.470054   3.604551   3.329180   4.214024   1.925792
    16  O    2.661846   3.966959   4.247704   5.003081   2.422267
    17  H    1.728630   3.017418   3.774552   4.436791   2.737723
    18  C    4.724110   5.823621   4.252056   5.173290   1.524424
    19  H    4.789470   5.974763   4.890818   5.838171   2.146263
    20  C    3.255229   4.172205   3.594134   4.095064   2.558058
    21  H    2.635411   3.316516   2.728211   3.104455   2.712421
    22  C    3.695144   4.537464   4.810985   5.188004   3.900559
    23  H    4.423566   5.049536   5.228776   5.442512   4.690565
    24  H    3.057223   3.806604   4.737330   5.064445   4.202226
    25  C    5.474227   6.385246   4.390706   5.270587   2.525317
    26  H    5.143591   5.958841   4.160860   5.039256   2.799723
    27  H    5.690662   6.473338   4.069721   4.850105   2.732359
    28  O    5.662059   6.781398   5.088449   5.931799   2.355805
    29  H    6.504355   7.621193   5.841285   6.692273   3.181798
    30  O    4.535617   5.362629   4.104645   4.547726   2.951363
    31  H    4.920959   5.564551   4.340652   4.592925   3.768056
    32  O    4.669383   5.667790   5.951801   6.439683   4.403934
    33  H    4.395869   5.509277   5.946676   6.529879   4.155056
    34  O    6.751384   7.724475   5.806368   6.678899   3.726466
    35  H    7.396967   8.278169   6.173334   6.990488   4.442390
                   11         12         13         14         15
    11  H    0.000000
    12  C    2.186600   0.000000
    13  H    2.757683   1.089005   0.000000
    14  O    2.051315   2.435268   3.274747   0.000000
    15  H    2.795572   2.383290   3.162449   0.973727   0.000000
    16  O    3.284283   1.413053   2.027843   2.558715   1.986854
    17  H    3.434026   1.950086   2.825528   2.482388   1.971686
    18  C    2.159131   2.563541   2.554315   2.391494   2.649326
    19  H    3.053698   2.794647   2.709459   2.606004   2.464945
    20  C    2.576589   1.530513   2.115858   3.360628   3.512819
    21  H    2.520236   2.163199   3.021816   3.138957   3.442781
    22  C    4.084247   2.528230   2.852398   4.522200   4.416197
    23  H    4.663676   3.446753   3.708702   5.369767   5.378217
    24  H    4.479578   2.911046   3.470751   4.472572   4.252666
    25  C    2.737730   3.914992   4.040122   2.890610   3.389475
    26  H    3.101106   4.237201   4.570777   2.576585   3.054134
    27  H    2.491629   4.179929   4.358943   3.242435   3.955940
    28  O    2.664936   2.885005   2.394609   3.609117   3.854432
    29  H    3.470336   3.806271   3.261080   4.291494   4.518530
    30  O    2.612763   2.331265   2.421189   4.114390   4.455633
    31  H    3.272260   3.182513   3.344110   4.816183   5.208880
    32  O    4.786813   2.876311   2.707298   5.170457   4.895969
    33  H    4.740906   2.619835   2.439896   4.793307   4.365436
    34  O    4.014626   4.913137   4.774823   4.174150   4.493360
    35  H    4.573426   5.732500   5.645747   4.795849   5.210358
                   16         17         18         19         20
    16  O    0.000000
    17  H    0.984957   0.000000
    18  C    3.276682   3.862299   0.000000
    19  H    3.047816   3.733696   1.100857   0.000000
    20  C    2.452279   2.518078   3.812526   4.258656   0.000000
    21  H    2.849864   2.544100   4.174631   4.684202   1.095716
    22  C    2.816599   2.813105   5.053094   5.278226   1.527512
    23  H    3.890940   3.815199   5.872457   6.215418   2.141231
    24  H    2.722302   2.398138   5.455266   5.563986   2.141243
    25  C    4.576910   4.990772   1.519219   2.139913   4.999833
    26  H    4.634626   4.893556   2.159655   2.459595   5.346535
    27  H    5.068306   5.392311   2.140228   3.043100   4.975060
    28  O    3.891659   4.614893   1.403515   2.063363   3.894680
    29  H    4.704409   5.457848   1.916820   2.375173   4.852603
    30  O    3.598531   3.845762   3.902887   4.584800   1.415162
    31  H    4.350735   4.455936   4.794607   5.515753   1.947863
    32  O    3.010790   3.365743   5.220882   5.265756   2.469180
    33  H    2.395855   2.881966   4.858902   4.721046   2.715588
    34  O    5.520734   6.079635   2.350550   2.606763   6.097034
    35  H    6.377587   6.873744   3.188308   3.524786   6.831664
                   21         22         23         24         25
    21  H    0.000000
    22  C    2.125128   0.000000
    23  H    2.535699   1.092493   0.000000
    24  H    2.311806   1.095319   1.760496   0.000000
    25  C    5.133034   6.365859   7.121354   6.714368   0.000000
    26  H    5.313415   6.676782   7.483056   6.855539   1.093009
    27  H    5.008795   6.444332   7.064574   6.863299   1.095327
    28  O    4.505492   5.058879   5.748270   5.707778   2.397801
    29  H    5.454210   5.988902   6.673929   6.640491   2.435931
    30  O    2.067862   2.463648   2.622900   3.359941   4.979678
    31  H    2.294820   2.671320   2.434033   3.546254   5.769861
    32  O    3.354861   1.406356   2.013120   2.073598   6.675816
    33  H    3.573044   1.922568   2.797520   2.255629   6.343511
    34  O    6.380808   7.383509   8.157134   7.803400   1.417098
    35  H    7.033197   8.180092   8.910554   8.599540   1.956395
                   26         27         28         29         30
    26  H    0.000000
    27  H    1.781851   0.000000
    28  O    3.342519   2.661399   0.000000
    29  H    3.452561   2.767332   0.959293   0.000000
    30  O    5.562698   4.741786   3.548286   4.445627   0.000000
    31  H    6.328159   5.414356   4.431449   5.299183   0.955576
    32  O    7.087038   6.894151   5.018075   5.857580   3.078448
    33  H    6.683155   6.706244   4.801817   5.603436   3.526050
    34  O    2.078113   2.079536   2.726789   2.236006   5.954068
    35  H    2.422913   2.272867   3.522834   2.986929   6.616918
                   31         32         33         34         35
    31  H    0.000000
    32  O    3.449138   0.000000
    33  H    4.070637   0.958721   0.000000
    34  O    6.779448   7.481182   7.097435   0.000000
    35  H    7.386146   8.347867   7.999330   0.954841   0.000000
 Symmetry turned off by external request.
 Stoichiometry    C6H18O10Si
 Framework group  C1[X(C6H18O10Si)]
 Deg. of freedom    99
 Full point group                 C1      NOp   1
 Rotational constants (GHZ):           0.4121757           0.3564946           0.2247968
 Standard basis: def2TZVPP (5D, 7F)
   790 basis functions,  1191 primitive gaussians,   894 cartesian basis functions
    74 alpha electrons       74 beta electrons
       nuclear repulsion energy      1681.9206014943 Hartrees.
 NAtoms=   35 NActive=   35 NUniq=   35 SFac= 1.00D+00 NAtFMM=   60 NAOKFM=F Big=F
 Integral buffers will be    131072 words long.
 Raffenetti 2 integral format.
 Two-electron integral symmetry is turned off.
 Nuclear repulsion after empirical dispersion term =     1681.8927515343 Hartrees.
 One-electron integrals computed using PRISM.
   1 Symmetry operations used in ECPInt.
 ECPInt:  NShTT=   44551 NPrTT=  121227 LenC2=   39388 LenP2D=   79142.
 LDataN:  DoStor=T MaxTD1= 6 Len=  172
 NBasis=   790 RedAO= T EigKep=  3.84D-05  NBF=   790
 NBsUse=   790 1.00D-06 EigRej= -1.00D+00 NBFU=   790
 Initial guess from the checkpoint file:  "Convert_toMannSiCenteredSN2_IRC_forward.chk"
 B after Tr=    -0.017393    0.006320    0.009126
         Rot=    1.000000   -0.000009   -0.000034   -0.000013 Ang=  -0.00 deg.
 ExpMin= 7.01D-02 ExpMax= 4.48D+04 ExpMxC= 1.53D+03 IAcc=3 IRadAn=         5 AccDes= 0.00D+00
 Harris functional with IExCor= 4639 and IRadAn=       5 diagonalized for initial guess.
 HarFok:  IExCor= 4639 AccDes= 0.00D+00 IRadAn=         5 IDoV= 1 UseB2=F ITyADJ=14
 ICtDFT=  3500011 ScaDFX=  1.000000  1.000000  1.000000  1.000000
 FoFCou: FMM=F IPFlag=           0 FMFlag=      100000 FMFlg1=           0
         NFxFlg=           0 DoJE=T BraDBF=F KetDBF=T FulRan=T
         wScrn=  0.000000 ICntrl=       500 IOpCl=  0 I1Cent=   200000004 NGrid=           0
         NMat0=    1 NMatS0=      1 NMatT0=    0 NMatD0=    1 NMtDS0=    0 NMtDT0=    0
 Symmetry not used in FoFCou.
 Requested convergence on RMS density matrix=1.00D-08 within 128 cycles.
 Requested convergence on MAX density matrix=1.00D-06.
 Requested convergence on             energy=1.00D-06.
 No special actions if energy rises.
 Integral accuracy reduced to 1.0D-05 until final iterations.
 Initial convergence to 1.0D-05 achieved.  Increase integral accuracy.
 SCF Done:  E(RwB97XD) =  -1281.48971541     A.U. after   11 cycles
            NFock= 11  Conv=0.74D-08     -V/T= 2.0037
 DoSCS=F DFT=T ScalE2(SS,OS)=  1.000000  1.000000
 Range of M.O.s used for correlation:     1   790
 NBasis=   790 NAE=    74 NBE=    74 NFC=     0 NFV=     0
 NROrb=    790 NOA=    74 NOB=    74 NVA=   716 NVB=   716

 **** Warning!!: The largest alpha MO coefficient is  0.22191274D+02

 Symmetrizing basis deriv contribution to polar:
 IMax=3 JMax=2 DiffMx= 0.00D+00
   1 Symmetry operations used in ECPInt.
 ECPInt:  NShTT=   44551 NPrTT=  121227 LenC2=   39388 LenP2D=   79142.
 LDataN:  DoStor=T MaxTD1= 7 Len=  274
 Calling FoFJK, ICntrl=      2127 FMM=F ISym2X=0 I1Cent= 0 IOpClX= 0 NMat=1 NMatS=1 NMatT=0.
 -------------------------------------------------------------------
 Center     Atomic                   Forces (Hartrees/Bohr)
 Number     Number              X              Y              Z
 -------------------------------------------------------------------
      1       14           0.003960255   -0.003810825    0.003267261
      2        8          -0.000756448   -0.000130065   -0.000612681
      3        1          -0.000047030   -0.000007703   -0.000086609
      4        8          -0.002934776   -0.000709723    0.000312181
      5        1          -0.000180414   -0.000042473    0.000186099
      6        8           0.003688355    0.000514130    0.000303467
      7        1          -0.003556676    0.002967892   -0.002901371
      8        8          -0.000663596    0.000503522    0.000026365
      9        1           0.000114931   -0.000044006   -0.000150452
     10        6           0.000000247    0.000031078    0.000005879
     11        1           0.000019095   -0.000005721   -0.000005857
     12        6          -0.000086262    0.000000886    0.000181568
     13        1           0.000004678    0.000004451   -0.000015816
     14        8           0.000669028    0.000494297   -0.000093743
     15        1          -0.000141207   -0.000135072   -0.000057464
     16        8          -0.000122639   -0.000002129   -0.000157838
     17        1          -0.000075551    0.000346708   -0.000153320
     18        6          -0.000017648   -0.000033517   -0.000015488
     19        1          -0.000005618   -0.000004314   -0.000003948
     20        6          -0.000017076    0.000033310    0.000044249
     21        1          -0.000004839   -0.000000393    0.000029852
     22        6          -0.000009988    0.000038394   -0.000018622
     23        1           0.000004414   -0.000004216   -0.000003225
     24        1           0.000011801    0.000026732    0.000000520
     25        6           0.000001168   -0.000032533    0.000007095
     26        1           0.000000776   -0.000005213    0.000002884
     27        1           0.000004788   -0.000002043   -0.000001715
     28        8           0.000067714    0.000012604   -0.000031923
     29        1           0.000001425   -0.000006192    0.000007876
     30        8           0.000043734   -0.000025973   -0.000093314
     31        1          -0.000003363   -0.000014537    0.000009155
     32        8           0.000002881   -0.000020855    0.000035115
     33        1          -0.000009196    0.000032256   -0.000014255
[...]
    18  C   -0.000809  -0.000160  -0.000041   0.000001   0.000000   0.000080
    19  H   -0.000115   0.000009  -0.000032  -0.000000  -0.000000   0.000002
    20  C   -0.003234   0.000241  -0.000187   0.000108  -0.000016   0.003964
    21  H   -0.002676  -0.000377   0.000010  -0.000152   0.000021  -0.002030
    22  C    0.000323  -0.000004   0.000005   0.000003   0.000001  -0.006978
    23  H    0.000053  -0.000000  -0.000000  -0.000000   0.000000   0.000015
    24  H    0.000066   0.000009  -0.000000  -0.000003   0.000000   0.006717
    25  C    0.000511  -0.000063  -0.000272  -0.000000  -0.000000  -0.000011
    26  H    0.000019  -0.000025   0.000998   0.000001   0.000000   0.000013
    27  H   -0.000069   0.000003   0.000008  -0.000000  -0.000000  -0.000001
    28  O    0.000003   0.000000   0.000004  -0.000000  -0.000000   0.000000
    29  H    0.000002  -0.000000   0.000000   0.000000   0.000000  -0.000000
    30  O    0.000135  -0.000000   0.000003   0.000000   0.000000   0.000061
    31  H    0.000007  -0.000000  -0.000000   0.000000  -0.000000   0.000004
    32  O   -0.000000  -0.000000  -0.000000  -0.000000  -0.000000   0.000031
    33  H   -0.000004   0.000000  -0.000000  -0.000000  -0.000000   0.000064
    34  O    0.000004   0.000000  -0.000006   0.000000  -0.000000   0.000000
    35  H   -0.000001   0.000000   0.000001   0.000000  -0.000000  -0.000000
               7          8          9         10         11         12
     1  Si  -0.011018   0.430790  -0.016363  -0.000443  -0.003334   0.003028
     2  O   -0.000057  -0.026130   0.000307   0.001162   0.000111  -0.000341
     3  H   -0.000037  -0.001600   0.000092  -0.001494  -0.000061   0.000549
     4  O    0.002450  -0.025300   0.002272  -0.000106   0.000026  -0.000045
     5  H   -0.000094   0.000601  -0.000073   0.000001  -0.000002   0.000005
     6  O    0.334624  -0.026802   0.000430  -0.003513   0.000081  -0.001827
     7  H    0.490410   0.000625  -0.000099   0.000514  -0.000025  -0.001192
     8  O    0.000625   7.654494   0.335428  -0.006833   0.010319   0.002952
     9  H   -0.000099   0.335428   0.518790  -0.001862  -0.000010   0.001057
    10  C    0.000514  -0.006833  -0.001862   5.307997   0.377514   0.140476
    11  H   -0.000025   0.010319  -0.000010   0.377514   0.585511  -0.042028
    12  C   -0.001192   0.002952   0.001057   0.140476  -0.042028   5.232060
    13  H    0.000005  -0.000094   0.000009  -0.006980  -0.001240   0.391767
    14  O    0.001040  -0.011647   0.001003   0.130641  -0.026700  -0.017411
    15  H   -0.000131   0.000170  -0.000017  -0.042256   0.007108  -0.025178
    16  O    0.000433   0.000003  -0.000000  -0.039704   0.003793   0.178421
    17  H   -0.000154  -0.000132  -0.000012  -0.004317   0.000116  -0.032731
    18  C   -0.000007  -0.000326  -0.000108   0.057702  -0.003125   0.061679
    19  H   -0.000000  -0.000007  -0.000000  -0.026054   0.009404  -0.018320
    20  C    0.000448  -0.017197  -0.000475  -0.003939  -0.000542   0.118048
    21  H    0.000394   0.016075   0.000980  -0.005531  -0.005364  -0.027253
    22  C    0.000051   0.000842   0.000055   0.008102   0.000514  -0.047092
    23  H    0.000001   0.000025  -0.000006  -0.000387  -0.000127   0.016990
    24  H    0.000156  -0.000174  -0.000001   0.003248  -0.000406  -0.008007
    25  C    0.000003   0.000326   0.000018   0.026751  -0.019864  -0.009559
    26  H   -0.000001  -0.000044  -0.000003  -0.025684   0.001514  -0.000689
    27  H   -0.000000   0.000062  -0.000007   0.014658   0.007319  -0.000645
    28  O   -0.000000   0.000005  -0.000000  -0.075504   0.011138  -0.026559
    29  H    0.000000   0.000001   0.000000   0.013247  -0.000294  -0.000795
    30  O   -0.000005   0.000371   0.000035  -0.013999   0.019687  -0.068317
    31  H    0.000000   0.000107  -0.000009   0.001633  -0.000814   0.008297
    32  O   -0.000004  -0.000002   0.000000   0.004710  -0.000188   0.016427
    33  H   -0.000009  -0.000001  -0.000000   0.000058  -0.000023   0.008704
    34  O   -0.000000   0.000000  -0.000000   0.010158  -0.000376  -0.000602
    35  H   -0.000000   0.000000  -0.000000  -0.002430  -0.000048   0.000073
              13         14         15         16         17         18
     1  Si  -0.000048   0.031047  -0.004068  -0.000331  -0.001864  -0.000809
     2  O    0.000001  -0.024045   0.002872  -0.000015  -0.000326  -0.000160
     3  H   -0.000001   0.016184  -0.001763  -0.000062  -0.000046  -0.000041
     4  O   -0.000000   0.000048  -0.000028  -0.000001   0.000054   0.000001
     5  H    0.000000   0.000021  -0.000009   0.000001  -0.000010   0.000000
     6  O   -0.000128  -0.010794   0.001665  -0.010219   0.028519   0.000080
     7  H    0.000005   0.001040  -0.000131   0.000433  -0.000154  -0.000007
     8  O   -0.000094  -0.011647   0.000170   0.000003  -0.000132  -0.000326
     9  H    0.000009   0.001003  -0.000017  -0.000000  -0.000012  -0.000108
    10  C   -0.006980   0.130641  -0.042256  -0.039704  -0.004317   0.057702
    11  H   -0.001240  -0.026700   0.007108   0.003793   0.000116  -0.003125
    12  C    0.391767  -0.017411  -0.025178   0.178421  -0.032731   0.061679
    13  H    0.525072   0.001824  -0.000085  -0.021717   0.004321  -0.005925
    14  O    0.001824   8.078116   0.297202  -0.021487   0.002722  -0.011405
    15  H   -0.000085   0.297202   0.509032   0.036673  -0.001609   0.016267
    16  O   -0.021717  -0.021487   0.036673   7.981292   0.333353  -0.001859
    17  H    0.004321   0.002722  -0.001609   0.333353   0.459488   0.001140
    18  C   -0.005925  -0.011405   0.016267  -0.001859   0.001140   5.028547
    19  H   -0.002547  -0.004367   0.005288   0.005353  -0.000164   0.414879
    20  C   -0.042936   0.001021   0.003634  -0.035936  -0.001682  -0.012377
    21  H    0.007546   0.000552  -0.000034  -0.001193   0.000498  -0.000784
    22  C   -0.003146  -0.000118  -0.000336   0.019316   0.001289  -0.001394
    23  H   -0.000387  -0.000016  -0.000008   0.000896  -0.000011   0.000081
    24  H    0.003022  -0.000045   0.000025  -0.004390  -0.001029  -0.000322
    25  C    0.002055  -0.009687  -0.004488   0.000680  -0.000014   0.219137
    26  H   -0.000157   0.013193   0.000813  -0.000074  -0.000001  -0.034151
    27  H   -0.000042   0.000302   0.000011  -0.000034   0.000002  -0.044875
    28  O    0.024356   0.002891   0.000057   0.000239  -0.000050   0.319459
    29  H   -0.001313  -0.000351  -0.000020  -0.000020  -0.000000  -0.048058
    30  O    0.010281   0.000284  -0.000118   0.002254  -0.000174  -0.001098
    31  H   -0.000406  -0.000017   0.000021  -0.000499  -0.000043   0.000152
    32  O    0.014677  -0.000023   0.000015  -0.013273  -0.000386  -0.000435
    33  H   -0.004014  -0.000010  -0.000029   0.016480  -0.001107   0.000154
    34  O    0.000015   0.000186  -0.000036   0.000004  -0.000001  -0.092805
    35  H    0.000008   0.000077   0.000003  -0.000000   0.000000   0.012260
              19         20         21         22         23         24
     1  Si  -0.000115  -0.003234  -0.002676   0.000323   0.000053   0.000066
     2  O    0.000009   0.000241  -0.000377  -0.000004  -0.000000   0.000009
     3  H   -0.000032  -0.000187   0.000010   0.000005  -0.000000  -0.000000
     4  O   -0.000000   0.000108  -0.000152   0.000003  -0.000000  -0.000003
     5  H   -0.000000  -0.000016   0.000021   0.000001   0.000000   0.000000
     6  O    0.000002   0.003964  -0.002030  -0.006978   0.000015   0.006717
     7  H   -0.000000   0.000448   0.000394   0.000051   0.000001   0.000156
     8  O   -0.000007  -0.017197   0.016075   0.000842   0.000025  -0.000174
     9  H   -0.000000  -0.000475   0.000980   0.000055  -0.000006  -0.000001
    10  C   -0.026054  -0.003939  -0.005531   0.008102  -0.000387   0.003248
    11  H    0.009404  -0.000542  -0.005364   0.000514  -0.000127  -0.000406
    12  C   -0.018320   0.118048  -0.027253  -0.047092   0.016990  -0.008007
    13  H   -0.002547  -0.042936   0.007546  -0.003146  -0.000387   0.003022
    14  O   -0.004367   0.001021   0.000552  -0.000118  -0.000016  -0.000045
    15  H    0.005288   0.003634  -0.000034  -0.000336  -0.000008   0.000025
    16  O    0.005353  -0.035936  -0.001193   0.019316   0.000896  -0.004390
    17  H   -0.000164  -0.001682   0.000498   0.001289  -0.000011  -0.001029
    18  C    0.414879  -0.012377  -0.000784  -0.001394   0.000081  -0.000322
    19  H    0.647731   0.000918  -0.000052  -0.000106  -0.000002   0.000009
    20  C    0.000918   5.253723   0.401796   0.229953  -0.038763  -0.082019
    21  H   -0.000052   0.401796   0.609491  -0.021452  -0.001285   0.003092
    22  C   -0.000106   0.229953  -0.021452   4.697155   0.391182   0.451714
    23  H   -0.000002  -0.038763  -0.001285   0.391182   0.639467  -0.036586
    24  H    0.000009  -0.082019   0.003092   0.451714  -0.036586   0.659165
    25  C   -0.044884   0.000547  -0.000100   0.000006  -0.000001   0.000005
    26  H   -0.004956  -0.000315   0.000019  -0.000002   0.000000   0.000000
    27  H    0.010912   0.000310  -0.000041   0.000003   0.000000   0.000000
    28  O   -0.046400  -0.001804  -0.000055   0.000080   0.000002  -0.000003
    29  H   -0.006125   0.000175   0.000005  -0.000012   0.000000  -0.000000
    30  O   -0.000059   0.264758  -0.039541  -0.013246  -0.002808   0.006382
    31  H    0.000011  -0.031450  -0.010795  -0.006634   0.003375   0.000678
    32  O    0.000003  -0.081330   0.004328   0.297550  -0.033258  -0.044230
    33  H   -0.000005  -0.010223  -0.000089  -0.039475   0.010264  -0.014545
    34  O    0.005734  -0.000002   0.000001  -0.000000   0.000000   0.000000
    35  H   -0.000602  -0.000004  -0.000000   0.000000  -0.000000  -0.000000
              25         26         27         28         29         30
     1  Si   0.000511   0.000019  -0.000069   0.000003   0.000002   0.000135
     2  O   -0.000063  -0.000025   0.000003   0.000000  -0.000000  -0.000000
     3  H   -0.000272   0.000998   0.000008   0.000004   0.000000   0.000003
     4  O   -0.000000   0.000001  -0.000000  -0.000000   0.000000   0.000000
     5  H   -0.000000   0.000000  -0.000000  -0.000000   0.000000   0.000000
     6  O   -0.000011   0.000013  -0.000001   0.000000  -0.000000   0.000061
     7  H    0.000003  -0.000001  -0.000000  -0.000000   0.000000  -0.000005
     8  O    0.000326  -0.000044   0.000062   0.000005   0.000001   0.000371
     9  H    0.000018  -0.000003  -0.000007  -0.000000   0.000000   0.000035
    10  C    0.026751  -0.025684   0.014658  -0.075504   0.013247  -0.013999
    11  H   -0.019864   0.001514   0.007319   0.011138  -0.000294   0.019687
    12  C   -0.009559  -0.000689  -0.000645  -0.026559  -0.000795  -0.068317
    13  H    0.002055  -0.000157  -0.000042   0.024356  -0.001313   0.010281
    14  O   -0.009687   0.013193   0.000302   0.002891  -0.000351   0.000284
    15  H   -0.004488   0.000813   0.000011   0.000057  -0.000020  -0.000118
    16  O    0.000680  -0.000074  -0.000034   0.000239  -0.000020   0.002254
    17  H   -0.000014  -0.000001   0.000002  -0.000050  -0.000000  -0.000174
    18  C    0.219137  -0.034151  -0.044875   0.319459  -0.048058  -0.001098
    19  H   -0.044884  -0.004956   0.010912  -0.046400  -0.006125  -0.000059
    20  C    0.000547  -0.000315   0.000310  -0.001804   0.000175   0.264758
    21  H   -0.000100   0.000019  -0.000041  -0.000055   0.000005  -0.039541
    22  C    0.000006  -0.000002   0.000003   0.000080  -0.000012  -0.013246
    23  H   -0.000001   0.000000   0.000000   0.000002   0.000000  -0.002808
    24  H    0.000005   0.000000   0.000000  -0.000003  -0.000000   0.006382
    25  C    4.771292   0.439364   0.403733  -0.030917   0.000858   0.000030
    26  H    0.439364   0.615123  -0.042452   0.005332   0.001560  -0.000003
    27  H    0.403733  -0.042452   0.628304   0.000664  -0.002805  -0.000061
    28  O   -0.030917   0.005332   0.000664   7.833104   0.328004   0.000196
    29  H    0.000858   0.001560  -0.002805   0.328004   0.519445   0.000021
    30  O    0.000030  -0.000003  -0.000061   0.000196   0.000021   7.826478
    31  H    0.000020  -0.000000  -0.000000   0.000047   0.000004   0.325658
    32  O    0.000008  -0.000000   0.000000  -0.000011  -0.000000   0.004107
    33  H   -0.000005   0.000000  -0.000000  -0.000007  -0.000000  -0.000434
    34  O    0.309860  -0.043871  -0.048942  -0.008836   0.023413  -0.000000
    35  H   -0.031969  -0.001217  -0.008767  -0.000043  -0.001540   0.000000
              31         32         33         34         35
     1  Si   0.000007  -0.000000  -0.000004   0.000004  -0.000001
     2  O   -0.000000  -0.000000   0.000000   0.000000   0.000000
     3  H   -0.000000  -0.000000  -0.000000  -0.000006   0.000001
     4  O    0.000000  -0.000000  -0.000000   0.000000   0.000000
     5  H   -0.000000  -0.000000  -0.000000  -0.000000  -0.000000
     6  O    0.000004   0.000031   0.000064   0.000000  -0.000000
     7  H    0.000000  -0.000004  -0.000009  -0.000000  -0.000000
     8  O    0.000107  -0.000002  -0.000001   0.000000   0.000000
     9  H   -0.000009   0.000000  -0.000000  -0.000000  -0.000000
    10  C    0.001633   0.004710   0.000058   0.010158  -0.002430
    11  H   -0.000814  -0.000188  -0.000023  -0.000376  -0.000048
    12  C    0.008297   0.016427   0.008704  -0.000602   0.000073
    13  H   -0.000406   0.014677  -0.004014   0.000015   0.000008
    14  O   -0.000017  -0.000023  -0.000010   0.000186   0.000077
    15  H    0.000021   0.000015  -0.000029  -0.000036   0.000003
    16  O   -0.000499  -0.013273   0.016480   0.000004  -0.000000
    17  H   -0.000043  -0.000386  -0.001107  -0.000001   0.000000
    18  C    0.000152  -0.000435   0.000154  -0.092805   0.012260
    19  H    0.000011   0.000003  -0.000005   0.005734  -0.000602
    20  C   -0.031450  -0.081330  -0.010223  -0.000002  -0.000004
    21  H   -0.010795   0.004328  -0.000089   0.000001  -0.000000
    22  C   -0.006634   0.297550  -0.039475  -0.000000   0.000000
    23  H    0.003375  -0.033258   0.010264   0.000000  -0.000000
    24  H    0.000678  -0.044230  -0.014545   0.000000  -0.000000
    25  C    0.000020   0.000008  -0.000005   0.309860  -0.031969
    26  H   -0.000000  -0.000000   0.000000  -0.043871  -0.001217
    27  H   -0.000000   0.000000  -0.000000  -0.048942  -0.008767
    28  O    0.000047  -0.000011  -0.000007  -0.008836  -0.000043
    29  H    0.000004  -0.000000  -0.000000   0.023413  -0.001540
    30  O    0.325658   0.004107  -0.000434  -0.000000   0.000000
    31  H    0.557480   0.000438  -0.000083   0.000000  -0.000000
    32  O    0.000438   7.845766   0.334855   0.000000  -0.000000
    33  H   -0.000083   0.334855   0.510319  -0.000000   0.000000
    34  O    0.000000   0.000000  -0.000000   7.861490   0.326537
    35  H   -0.000000  -0.000000   0.000000   0.326537   0.537730
 Mulliken charges:
               1
     1  Si   0.841373
     2  O   -0.393373
     3  H    0.210684
     4  O   -0.457391
     5  H    0.190904
     6  O   -0.393607
     7  H    0.181680
     8  O   -0.336906
     9  H    0.158568
    10  C    0.162466
    11  H    0.070419
    12  C    0.148058
    13  H    0.106208
    14  O   -0.440231
    15  H    0.199357
    16  O   -0.428374
    17  H    0.214360
    18  C    0.128526
    19  H    0.054544
    20  C    0.084788
    21  H    0.073995
    22  C    0.041855
    23  H    0.051294
    24  H    0.057471
    25  C   -0.023366
    26  H    0.075695
    27  H    0.082450
    28  O   -0.335393
    29  H    0.174600
    30  O   -0.320877
    31  H    0.152821
    32  O   -0.349772
    33  H    0.189166
    34  O   -0.341925
    35  H    0.169932
 Sum of Mulliken charges =  -0.00000
 Mulliken charges with hydrogens summed into heavy atoms:
               1
     1  Si   0.841373
     2  O   -0.182689
     4  O   -0.266487
     6  O   -0.211927
     8  O   -0.178338
    10  C    0.232885
    12  C    0.254267
    14  O   -0.240874
    16  O   -0.214014
    18  C    0.183070
    20  C    0.158782
    22  C    0.150620
    25  C    0.134779
    28  O   -0.160793
    30  O   -0.168057
    32  O   -0.160606
    34  O   -0.171993
 APT charges:
               1
     1  Si   0.401297
     2  O   -0.190097
     3  H    0.134481
     4  O   -0.804126
     5  H    0.976656
     6  O   -1.063274
     7  H    0.789407
     8  O   -1.006446
     9  H    0.730415
    10  C    0.006761
    11  H    0.162024
    12  C   -0.180767
    13  H    0.450303
    14  O   -0.557441
    15  H    0.390674
    16  O   -0.510775
    17  H    0.301230
    18  C   -0.181035
    19  H    0.305561
    20  C    0.067269
    21  H    0.087282
    22  C   -0.727328
    23  H    0.577920
    24  H    0.219936
    25  C   -0.404163
    26  H    0.212977
    27  H    0.247388
    28  O   -0.951927
    29  H    0.858470
    30  O   -0.796756
    31  H    0.659638
    32  O   -0.256136
    33  H    0.177631
    34  O   -1.065486
    35  H    0.938438
 Sum of APT charges =  -0.00000
 APT charges with hydrogens summed into heavy atoms:
               1
     1  Si   0.401297
     2  O   -0.055616
     4  O    0.172530
     6  O   -0.273867
     8  O   -0.276031
    10  C    0.168785
    12  C    0.269536
    14  O   -0.166767
    16  O   -0.209546
    18  C    0.124526
    20  C    0.154552
    22  C    0.070529
    25  C    0.056201
    28  O   -0.093457
    30  O   -0.137117
    32  O   -0.078505
    34  O   -0.127049
 Electronic spatial extent (au):  <R**2>=           5305.7505
 Charge=             -0.0000 electrons
 Dipole moment (field-independent basis, Debye):
    X=              2.8454    Y=             -4.1345    Z=              1.4157  Tot=              5.2148
 Quadrupole moment (field-independent basis, Debye-Ang):
   XX=            -98.7065   YY=           -112.3713   ZZ=            -99.8862
   XY=             11.3378   XZ=              0.3364   YZ=             -1.4770
 Traceless Quadrupole moment (field-independent basis, Debye-Ang):
   XX=              4.9482   YY=             -8.7167   ZZ=              3.7685
   XY=             11.3378   XZ=              0.3364   YZ=             -1.4770
 Octapole moment (field-independent basis, Debye-Ang**2):
  XXX=             26.5831  YYY=           -104.9511  ZZZ=             23.0899  XYY=              3.3939
  XXY=            -48.4122  XXZ=              5.7743  XZZ=             23.4637  YZZ=              6.3276
  YYZ=             28.0815  XYZ=             10.2510
 Hexadecapole moment (field-independent basis, Debye-Ang**3):
 XXXX=          -2985.5956 YYYY=          -2756.7916 ZZZZ=           -478.4571 XXXY=             44.0847
 XXXZ=           -146.3674 YYYX=            189.9754 YYYZ=             31.1579 ZZZX=             -0.6163
 ZZZY=             25.1778 XXYY=           -778.4777 XXZZ=           -614.8208 YYZZ=           -458.1760
 XXYZ=           -105.0825 YYXZ=             -0.5357 ZZXY=             14.3367
 N-N= 1.642553047833D+03 E-N=-6.311583444873D+03  KE= 1.276835248345D+03
  Exact polarizability:       0.000       0.000       0.000       0.000       0.000       0.000
 Approx polarizability:     143.991      -1.496     138.604      -0.496       1.446     138.547

 This type of calculation cannot be archived.


 ALTHOUGH J.J. COULD DIAGNOSE THE FAULTS OF AN
 APPARATUS WITH UNCANNY ACCURACY, IT WAS JUST AS
 WELL NOT TO LET HIM HANDLE IT.
   -- GEORGE THOMPSON, ABOUT HIS FATHER
 Job cpu time:      13 days 18 hours 39 minutes 49.9 seconds.
 Elapsed time:       3 days 13 hours 11 minutes 54.8 seconds.
 File lengths (MBytes):  RWF=   1463 Int=      0 D2E=      0 Chk=     49 Scr=      1
 Normal termination of Gaussian 16 at Thu Feb 22 09:58:14 2024.
