 Entering Gaussian System, Link 0=/opt/software/gaussian/g16.c01/g16
 Initial command:
 /opt/software/gaussian/g16.c01/l1.exe "/scratch/arhender/24483010/Gau-455.inp" -scrdir="/scratch/arhender/24483010/"
 Entering Link 1 = /opt/software/gaussian/g16.c01/l1.exe PID=       456.
  
 Copyright (c) 1988-2019, Gaussian, Inc.  All Rights Reserved.
  
 This is part of the Gaussian(R) 16 program.  It is based on
 the Gaussian(R) 09 system (copyright 2009, Gaussian, Inc.),
 the Gaussian(R) 03 system (copyright 2003, Gaussian, Inc.),
 the Gaussian(R) 98 system (copyright 1998, Gaussian, Inc.),
 the Gaussian(R) 94 system (copyright 1995, Gaussian, Inc.),
 the Gaussian 92(TM) system (copyright 1992, Gaussian, Inc.),
 the Gaussian 90(TM) system (copyright 1990, Gaussian, Inc.),
 the Gaussian 88(TM) system (copyright 1988, Gaussian, Inc.),
 the Gaussian 86(TM) system (copyright 1986, Carnegie Mellon
 University), and the Gaussian 82(TM) system (copyright 1983,
 Carnegie Mellon University). Gaussian is a federally registered
 trademark of Gaussian, Inc.
  
 This software contains proprietary and confidential information,
 including trade secrets, belonging to Gaussian, Inc.
  
 This software is provided under written license and may be
 used, copied, transmitted, or stored only in accord with that
 written license.
  
 The following legend is applicable only to US Government
 contracts under FAR:
  
                    RESTRICTED RIGHTS LEGEND
  
 Use, reproduction and disclosure by the US Government is
 subject to restrictions as set forth in subparagraphs (a)
 and (c) of the Commercial Computer Software - Restricted
 Rights clause in FAR 52.227-19.
  
 Gaussian, Inc.
 340 Quinnipiac St., Bldg. 40, Wallingford CT 06492
  
  
 ---------------------------------------------------------------
 Warning -- This program may not be used in any manner that
 competes with the business of Gaussian, Inc. or will provide
 assistance to any competitor of Gaussian, Inc.  The licensee
 of this program is prohibited from giving any competitor of
 Gaussian, Inc. access to this program.  By using this program,
 the user acknowledges that Gaussian, Inc. is engaged in the
 business of creating and licensing software in the field of
 computational chemistry and represents and warrants to the
 licensee that it is not a competitor of Gaussian, Inc. and that
 it will not use this program in any manner prohibited above.
 ---------------------------------------------------------------
  

 Cite this work as:
 Gaussian 16, Revision C.01,
 M. J. Frisch, G. W. Trucks, H. B. Schlegel, G. E. Scuseria, 
 M. A. Robb, J. R. Cheeseman, G. Scalmani, V. Barone, 
 G. A. Petersson, H. Nakatsuji, X. Li, M. Caricato, A. V. Marenich, 
 J. Bloino, B. G. Janesko, R. Gomperts, B. Mennucci, H. P. Hratchian, 
 J. V. Ortiz, A. F. Izmaylov, J. L. Sonnenberg, D. Williams-Young, 
 F. Ding, F. Lipparini, F. Egidi, J. Goings, B. Peng, A. Petrone, 
 T. Henderson, D. Ranasinghe, V. G. Zakrzewski, J. Gao, N. Rega, 
 G. Zheng, W. Liang, M. Hada, M. Ehara, K. Toyota, R. Fukuda, 
 J. Hasegawa, M. Ishida, T. Nakajima, Y. Honda, O. Kitao, H. Nakai, 
 T. Vreven, K. Throssell, J. A. Montgomery, Jr., J. E. Peralta, 
 F. Ogliaro, M. J. Bearpark, J. J. Heyd, E. N. Brothers, K. N. Kudin, 
 V. N. Staroverov, T. A. Keith, R. Kobayashi, J. Normand, 
 K. Raghavachari, A. P. Rendell, J. C. Burant, S. S. Iyengar, 
 J. Tomasi, M. Cossi, J. M. Millam, M. Klene, C. Adamo, R. Cammi, 
 J. W. Ochterski, R. L. Martin, K. Morokuma, O. Farkas, 
 J. B. Foresman, and D. J. Fox, Gaussian, Inc., Wallingford CT, 2019.
 
 ******************************************
 Gaussian 16:  ES64L-G16RevC.01  3-Jul-2019
                 5-Feb-2024 
 ******************************************
 %chk=PmonoL_HbiL_mannitol_unfreezeand_TSopt.chk
 %mem=1600MB
 %nprocs=4
 Will use up to    4 processors via shared memory.
 -----------------------------------------------------------------
 # opt=(calcfc,ts,noeigen) freq wb97xd/def2tzvpp geom=connectivity
 -----------------------------------------------------------------
 1/5=1,10=4,11=1,18=20,26=3,38=1,57=2/1,3;
 2/9=110,12=2,17=6,18=5,40=1/2;
 3/5=44,7=202,11=2,25=1,30=1,71=2,74=-58,140=1/1,2,3;
 4//1;
 5/5=2,38=5/2;
 8/6=4,10=90,11=11/1;
 11/6=1,8=1,9=11,15=111,16=1/1,2,10;
 10/6=1,13=1/2;
 6/7=2,8=2,9=2,10=2,28=1/1;
 7/10=1,25=1/1,2,3,16;
 1/5=1,10=4,11=1,18=20,26=3/3(2);
 2/9=110/2;
 99//99;
 2/9=110/2;
 3/5=44,7=202,11=2,25=1,30=1,71=1,74=-58/1,2,3;
 4/5=5,16=3,69=1/1;
 5/5=2,38=5/2;
 7//1,2,3,16;
 1/5=1,11=1,18=20,26=3/3(-5);
 2/9=110/2;
 6/7=2,8=2,9=2,10=2,19=2,28=1/1;
 99/9=1/99;
 ----------------------------------------------------------------------
 Convert Ethylene Glycol P(L) to H(=L) TS to mannitol Unfreeze TS geome
 try and follow imag freq
 ----------------------------------------------------------------------
 Symbolic Z-matrix:
 Charge = -2 Multiplicity = 1
 Si                   -2.02202  -0.58175   0.02261 
 O                    -1.88167  -1.42824   1.54014 
 O                    -1.92005   0.70228  -1.17945 
 O                    -2.75715  -1.82395  -0.90866 
 O                    -0.34914  -1.12757  -0.51706 
 O                    -0.57693   0.82623   1.38005 
 O                    -3.49598   0.1957    0.56102 
 C                     0.64388   0.58347   0.84762 
 H                     1.46128   0.6643    1.60964 
 C                     0.7286   -0.84809   0.28135 
 H                    -3.70572  -0.24704   1.37965 
 H                    -1.35088  -0.79693   2.04172 
 H                    -2.04215  -2.37414  -1.21957 
 H                    -2.81285   1.04889  -1.17797 
 C                     1.03653   1.64619  -0.22236 
 H                     0.7609    1.2837   -1.21792 
 O                     2.47954   1.82546  -0.1684 
 H                     2.76231   2.13232  -1.0275 
 C                     0.35159   2.99584  -0.01238 
 H                     0.15243   3.12339   1.05848 
 H                     1.04793   3.78356  -0.33603 
 O                    -0.82      3.13541  -0.76851 
 H                    -1.25076   2.24824  -0.79521 
 C                     1.9914   -1.27109  -0.50218 
 H                     2.22326  -0.53137  -1.28179 
 O                     1.69243  -2.51444  -1.12394 
 H                     0.72468  -2.44909  -1.20526 
 C                     3.24324  -1.47898   0.34943 
 H                     2.94253  -1.88191   1.32651 
 H                     3.85254  -2.24076  -0.14668 
 O                     4.05133  -0.33131   0.5158 
 H                     3.48485   0.44907   0.40637 
 H                     0.70752  -1.50827   1.17225 
 

 GradGradGradGradGradGradGradGradGradGradGradGradGradGradGradGradGradGrad
 Berny optimization.
 Initialization pass.
                           ----------------------------
                           !    Initial Parameters    !
                           ! (Angstroms and Degrees)  !
 --------------------------                            --------------------------
 ! Name  Definition              Value          Derivative Info.                !
 --------------------------------------------------------------------------------
 ! R1    R(1,2)                  1.7433         calculate D2E/DX2 analytically  !
 ! R2    R(1,3)                  1.7618         calculate D2E/DX2 analytically  !
 ! R3    R(1,4)                  1.7178         calculate D2E/DX2 analytically  !
 ! R4    R(1,5)                  1.8406         calculate D2E/DX2 analytically  !
 ! R5    R(1,7)                  1.7512         calculate D2E/DX2 analytically  !
 ! R6    R(2,12)                 0.9653         calculate D2E/DX2 analytically  !
 ! R7    R(3,14)                 0.9577         calculate D2E/DX2 analytically  !
 ! R8    R(4,13)                 0.9542         calculate D2E/DX2 analytically  !
 ! R9    R(5,10)                 1.3701         calculate D2E/DX2 analytically  !
 ! R10   R(6,8)                  1.3538         calculate D2E/DX2 analytically  !
 ! R11   R(7,11)                 0.954          calculate D2E/DX2 analytically  !
 ! R12   R(8,9)                  1.1204         calculate D2E/DX2 analytically  !
 ! R13   R(8,10)                 1.5418         calculate D2E/DX2 analytically  !
 ! R14   R(8,15)                 1.5583         calculate D2E/DX2 analytically  !
 ! R15   R(10,24)                1.5452         calculate D2E/DX2 analytically  !
 ! R16   R(10,33)                1.109          calculate D2E/DX2 analytically  !
 ! R17   R(15,16)                1.0948         calculate D2E/DX2 analytically  !
 ! R18   R(15,17)                1.4551         calculate D2E/DX2 analytically  !
 ! R19   R(15,19)                1.528          calculate D2E/DX2 analytically  !
 ! R20   R(17,18)                0.9551         calculate D2E/DX2 analytically  !
 ! R21   R(19,20)                1.0967         calculate D2E/DX2 analytically  !
 ! R22   R(19,21)                1.1001         calculate D2E/DX2 analytically  !
 ! R23   R(19,22)                1.4014         calculate D2E/DX2 analytically  !
 ! R24   R(22,23)                0.9866         calculate D2E/DX2 analytically  !
 ! R25   R(24,25)                1.0994         calculate D2E/DX2 analytically  !
 ! R26   R(24,26)                1.4219         calculate D2E/DX2 analytically  !
 ! R27   R(24,28)                1.5282         calculate D2E/DX2 analytically  !
 ! R28   R(26,27)                0.9734         calculate D2E/DX2 analytically  !
 ! R29   R(28,29)                1.0988         calculate D2E/DX2 analytically  !
 ! R30   R(28,30)                1.0944         calculate D2E/DX2 analytically  !
 ! R31   R(28,31)                1.4135         calculate D2E/DX2 analytically  !
 ! R32   R(31,32)                0.9705         calculate D2E/DX2 analytically  !
 ! A1    A(2,1,3)              160.5839         calculate D2E/DX2 analytically  !
 ! A2    A(2,1,4)               98.9309         calculate D2E/DX2 analytically  !
 ! A3    A(2,1,5)               92.1813         calculate D2E/DX2 analytically  !
 ! A4    A(2,1,7)               90.8994         calculate D2E/DX2 analytically  !
 ! A5    A(3,1,4)              100.4814         calculate D2E/DX2 analytically  !
 ! A6    A(3,1,5)               87.9068         calculate D2E/DX2 analytically  !
 ! A7    A(3,1,7)               86.269          calculate D2E/DX2 analytically  !
 ! A8    A(4,1,5)               90.8915         calculate D2E/DX2 analytically  !
 ! A9    A(4,1,7)               97.3266         calculate D2E/DX2 analytically  !
 ! A10   A(1,2,12)             100.3125         calculate D2E/DX2 analytically  !
 ! A11   A(1,3,14)             102.0497         calculate D2E/DX2 analytically  !
 ! A12   A(1,4,13)             105.8379         calculate D2E/DX2 analytically  !
 ! A13   A(1,5,10)             118.9214         calculate D2E/DX2 analytically  !
 ! A14   A(1,7,11)             104.0535         calculate D2E/DX2 analytically  !
 ! A15   A(6,8,9)              112.1762         calculate D2E/DX2 analytically  !
 ! A16   A(6,8,10)             111.1301         calculate D2E/DX2 analytically  !
 ! A17   A(6,8,15)             112.0226         calculate D2E/DX2 analytically  !
 ! A18   A(9,8,10)             106.0621         calculate D2E/DX2 analytically  !
 ! A19   A(9,8,15)             103.5303         calculate D2E/DX2 analytically  !
 ! A20   A(10,8,15)            111.5412         calculate D2E/DX2 analytically  !
 ! A21   A(5,10,8)             111.1125         calculate D2E/DX2 analytically  !
 ! A22   A(5,10,24)            106.9499         calculate D2E/DX2 analytically  !
 ! A23   A(5,10,33)            109.3747         calculate D2E/DX2 analytically  !
 ! A24   A(8,10,24)            119.0341         calculate D2E/DX2 analytically  !
 ! A25   A(8,10,33)            104.8698         calculate D2E/DX2 analytically  !
 ! A26   A(24,10,33)           105.0656         calculate D2E/DX2 analytically  !
 ! A27   A(8,15,16)            109.5822         calculate D2E/DX2 analytically  !
 ! A28   A(8,15,17)            107.9652         calculate D2E/DX2 analytically  !
 ! A29   A(8,15,19)            113.2697         calculate D2E/DX2 analytically  !
 ! A30   A(16,15,17)           108.9165         calculate D2E/DX2 analytically  !
 ! A31   A(16,15,19)           107.732          calculate D2E/DX2 analytically  !
 ! A32   A(17,15,19)           109.306          calculate D2E/DX2 analytically  !
 ! A33   A(15,17,18)           107.4481         calculate D2E/DX2 analytically  !
 ! A34   A(15,19,20)           108.5615         calculate D2E/DX2 analytically  !
 ! A35   A(15,19,21)           107.9576         calculate D2E/DX2 analytically  !
 ! A36   A(15,19,22)           112.8667         calculate D2E/DX2 analytically  !
 ! A37   A(20,19,21)           108.6            calculate D2E/DX2 analytically  !
 ! A38   A(20,19,22)           111.3122         calculate D2E/DX2 analytically  !
 ! A39   A(21,19,22)           107.4063         calculate D2E/DX2 analytically  !
 ! A40   A(19,22,23)           106.8623         calculate D2E/DX2 analytically  !
 ! A41   A(10,24,25)           110.3497         calculate D2E/DX2 analytically  !
 ! A42   A(10,24,26)           106.8145         calculate D2E/DX2 analytically  !
 ! A43   A(10,24,28)           115.0948         calculate D2E/DX2 analytically  !
 ! A44   A(25,24,26)           108.8198         calculate D2E/DX2 analytically  !
 ! A45   A(25,24,28)           108.2956         calculate D2E/DX2 analytically  !
 ! A46   A(26,24,28)           107.2738         calculate D2E/DX2 analytically  !
 ! A47   A(24,26,27)           100.7701         calculate D2E/DX2 analytically  !
 ! A48   A(24,28,29)           108.7361         calculate D2E/DX2 analytically  !
 ! A49   A(24,28,30)           107.3461         calculate D2E/DX2 analytically  !
 ! A50   A(24,28,31)           115.0524         calculate D2E/DX2 analytically  !
 ! A51   A(29,28,30)           107.4701         calculate D2E/DX2 analytically  !
 ! A52   A(29,28,31)           110.4579         calculate D2E/DX2 analytically  !
 ! A53   A(30,28,31)           107.4723         calculate D2E/DX2 analytically  !
 ! A54   A(28,31,32)           107.8132         calculate D2E/DX2 analytically  !
 ! A55   L(5,1,7,2,-1)         183.0807         calculate D2E/DX2 analytically  !
 ! A56   L(5,1,7,2,-2)         171.1934         calculate D2E/DX2 analytically  !
 ! D1    D(3,1,2,12)            -9.2746         calculate D2E/DX2 analytically  !
 ! D2    D(4,1,2,12)           171.8632         calculate D2E/DX2 analytically  !
 ! D3    D(5,1,2,12)            80.6171         calculate D2E/DX2 analytically  !
 ! D4    D(7,1,2,12)           -90.5762         calculate D2E/DX2 analytically  !
 ! D5    D(2,1,3,14)           -99.3033         calculate D2E/DX2 analytically  !
 ! D6    D(4,1,3,14)            79.5536         calculate D2E/DX2 analytically  !
 ! D7    D(5,1,3,14)           170.0734         calculate D2E/DX2 analytically  !
 ! D8    D(7,1,3,14)           -17.2174         calculate D2E/DX2 analytically  !
 ! D9    D(2,1,4,13)           -84.0187         calculate D2E/DX2 analytically  !
 ! D10   D(3,1,4,13)            96.3659         calculate D2E/DX2 analytically  !
 ! D11   D(5,1,4,13)             8.3298         calculate D2E/DX2 analytically  !
 ! D12   D(7,1,4,13)          -176.0948         calculate D2E/DX2 analytically  !
 ! D13   D(2,1,5,10)           -55.9314         calculate D2E/DX2 analytically  !
 ! D14   D(3,1,5,10)           104.6391         calculate D2E/DX2 analytically  !
 ! D15   D(4,1,5,10)          -154.9043         calculate D2E/DX2 analytically  !
 ! D16   D(2,1,7,11)            -8.8521         calculate D2E/DX2 analytically  !
 ! D17   D(3,1,7,11)          -169.6258         calculate D2E/DX2 analytically  !
 ! D18   D(4,1,7,11)            90.2712         calculate D2E/DX2 analytically  !
 ! D19   D(1,5,10,8)           -41.9613         calculate D2E/DX2 analytically  !
 ! D20   D(1,5,10,24)         -173.38           calculate D2E/DX2 analytically  !
 ! D21   D(1,5,10,33)           73.3404         calculate D2E/DX2 analytically  !
 ! D22   D(6,8,10,5)            48.7758         calculate D2E/DX2 analytically  !
 ! D23   D(6,8,10,24)          173.6488         calculate D2E/DX2 analytically  !
 ! D24   D(6,8,10,33)          -69.2882         calculate D2E/DX2 analytically  !
 ! D25   D(9,8,10,5)           170.9419         calculate D2E/DX2 analytically  !
 ! D26   D(9,8,10,24)          -64.1851         calculate D2E/DX2 analytically  !
 ! D27   D(9,8,10,33)           52.8779         calculate D2E/DX2 analytically  !
 ! D28   D(15,8,10,5)          -77.0091         calculate D2E/DX2 analytically  !
 ! D29   D(15,8,10,24)          47.8639         calculate D2E/DX2 analytically  !
 ! D30   D(15,8,10,33)         164.9269         calculate D2E/DX2 analytically  !
 ! D31   D(6,8,15,16)          -94.2223         calculate D2E/DX2 analytically  !
 ! D32   D(6,8,15,17)          147.2832         calculate D2E/DX2 analytically  !
 ! D33   D(6,8,15,19)           26.1001         calculate D2E/DX2 analytically  !
 ! D34   D(9,8,15,16)          144.7052         calculate D2E/DX2 analytically  !
 ! D35   D(9,8,15,17)           26.2107         calculate D2E/DX2 analytically  !
 ! D36   D(9,8,15,19)          -94.9724         calculate D2E/DX2 analytically  !
 ! D37   D(10,8,15,16)          31.0685         calculate D2E/DX2 analytically  !
 ! D38   D(10,8,15,17)         -87.4261         calculate D2E/DX2 analytically  !
 ! D39   D(10,8,15,19)         151.3909         calculate D2E/DX2 analytically  !
 ! D40   D(5,10,24,25)          76.3618         calculate D2E/DX2 analytically  !
 ! D41   D(5,10,24,26)         -41.771          calculate D2E/DX2 analytically  !
 ! D42   D(5,10,24,28)        -160.7217         calculate D2E/DX2 analytically  !
 ! D43   D(8,10,24,25)         -50.4979         calculate D2E/DX2 analytically  !
 ! D44   D(8,10,24,26)        -168.6307         calculate D2E/DX2 analytically  !
 ! D45   D(8,10,24,28)          72.4186         calculate D2E/DX2 analytically  !
 ! D46   D(33,10,24,25)       -167.4582         calculate D2E/DX2 analytically  !
 ! D47   D(33,10,24,26)         74.409          calculate D2E/DX2 analytically  !
 ! D48   D(33,10,24,28)        -44.5417         calculate D2E/DX2 analytically  !
 ! D49   D(8,15,17,18)         154.466          calculate D2E/DX2 analytically  !
 ! D50   D(16,15,17,18)         35.5471         calculate D2E/DX2 analytically  !
 ! D51   D(19,15,17,18)        -81.9167         calculate D2E/DX2 analytically  !
 ! D52   D(8,15,19,20)          28.867          calculate D2E/DX2 analytically  !
 ! D53   D(8,15,19,21)         146.4169         calculate D2E/DX2 analytically  !
 ! D54   D(8,15,19,22)         -95.0302         calculate D2E/DX2 analytically  !
 ! D55   D(16,15,19,20)        150.2356         calculate D2E/DX2 analytically  !
 ! D56   D(16,15,19,21)        -92.2145         calculate D2E/DX2 analytically  !
 ! D57   D(16,15,19,22)         26.3384         calculate D2E/DX2 analytically  !
 ! D58   D(17,15,19,20)        -91.5576         calculate D2E/DX2 analytically  !
 ! D59   D(17,15,19,21)         25.9923         calculate D2E/DX2 analytically  !
 ! D60   D(17,15,19,22)        144.5452         calculate D2E/DX2 analytically  !
 ! D61   D(15,19,22,23)         35.8216         calculate D2E/DX2 analytically  !
 ! D62   D(20,19,22,23)        -86.5468         calculate D2E/DX2 analytically  !
 ! D63   D(21,19,22,23)        154.6953         calculate D2E/DX2 analytically  !
 ! D64   D(10,24,26,27)         26.3574         calculate D2E/DX2 analytically  !
 ! D65   D(25,24,26,27)        -92.7725         calculate D2E/DX2 analytically  !
 ! D66   D(28,24,26,27)        150.2721         calculate D2E/DX2 analytically  !
 ! D67   D(10,24,28,29)         34.0714         calculate D2E/DX2 analytically  !
 ! D68   D(10,24,28,30)        150.0512         calculate D2E/DX2 analytically  !
 ! D69   D(10,24,28,31)        -90.3967         calculate D2E/DX2 analytically  !
 ! D70   D(25,24,28,29)        158.0777         calculate D2E/DX2 analytically  !
 ! D71   D(25,24,28,30)        -85.9425         calculate D2E/DX2 analytically  !
 ! D72   D(25,24,28,31)         33.6096         calculate D2E/DX2 analytically  !
 ! D73   D(26,24,28,29)        -84.6235         calculate D2E/DX2 analytically  !
 ! D74   D(26,24,28,30)         31.3563         calculate D2E/DX2 analytically  !
 ! D75   D(26,24,28,31)        150.9084         calculate D2E/DX2 analytically  !
 ! D76   D(24,28,31,32)         25.2798         calculate D2E/DX2 analytically  !
 ! D77   D(29,28,31,32)        -98.2799         calculate D2E/DX2 analytically  !
 ! D78   D(30,28,31,32)        144.762          calculate D2E/DX2 analytically  !
 --------------------------------------------------------------------------------
 Trust Radius=3.00D-01 FncErr=1.00D-07 GrdErr=1.00D-06 EigMax=2.50D+02 EigMin=1.00D-04
 Number of steps in this run=    176 maximum allowed number of steps=    198.
 Search for a saddle point of order  1.
 GradGradGradGradGradGradGradGradGradGradGradGradGradGradGradGradGradGrad

                          Input orientation:                          
 ---------------------------------------------------------------------
 Center     Atomic      Atomic             Coordinates (Angstroms)
 Number     Number       Type             X           Y           Z
 ---------------------------------------------------------------------
      1         14           0       -2.022024   -0.581753    0.022605
      2          8           0       -1.881669   -1.428244    1.540137
      3          8           0       -1.920053    0.702278   -1.179446
      4          8           0       -2.757147   -1.823954   -0.908662
      5          8           0       -0.349141   -1.127569   -0.517057
      6          8           0       -0.576931    0.826227    1.380048
      7          8           0       -3.495975    0.195701    0.561019
      8          6           0        0.643875    0.583473    0.847618
      9          1           0        1.461275    0.664302    1.609644
     10          6           0        0.728603   -0.848090    0.281354
     11          1           0       -3.705715   -0.247038    1.379652
     12          1           0       -1.350884   -0.796931    2.041719
     13          1           0       -2.042145   -2.374135   -1.219571
     14          1           0       -2.812845    1.048892   -1.177969
     15          6           0        1.036531    1.646186   -0.222355
     16          1           0        0.760901    1.283702   -1.217919
     17          8           0        2.479538    1.825459   -0.168401
     18          1           0        2.762308    2.132316   -1.027499
     19          6           0        0.351593    2.995840   -0.012384
     20          1           0        0.152431    3.123394    1.058480
     21          1           0        1.047929    3.783557   -0.336034
     22          8           0       -0.820000    3.135413   -0.768505
     23          1           0       -1.250763    2.248240   -0.795207
     24          6           0        1.991397   -1.271085   -0.502176
     25          1           0        2.223261   -0.531368   -1.281790
     26          8           0        1.692428   -2.514438   -1.123941
     27          1           0        0.724683   -2.449086   -1.205264
     28          6           0        3.243236   -1.478982    0.349425
     29          1           0        2.942528   -1.881905    1.326505
     30          1           0        3.852539   -2.240757   -0.146676
     31          8           0        4.051330   -0.331308    0.515803
     32          1           0        3.484851    0.449065    0.406365
     33          1           0        0.707520   -1.508266    1.172253
 ---------------------------------------------------------------------
                    Distance matrix (angstroms):
                    1          2          3          4          5
     1  Si   0.000000
     2  O    1.743316   0.000000
     3  O    1.761834   3.454957   0.000000
     4  O    1.717768   2.630526   2.675051   0.000000
     5  O    1.840567   2.582846   2.500973   2.537085   0.000000
     6  O    2.431739   2.609714   2.893156   4.124924   2.732803
     7  O    1.751244   2.490352   2.401951   2.604772   3.579924
     8  C    3.024139   3.302266   3.270601   4.521855   2.403348
     9  H    4.025508   3.944471   4.383360   5.507120   3.318323
    10  C    2.775578   2.955441   3.398964   3.810368   1.370073
    11  H    2.188247   2.179024   3.261713   2.936465   3.954672
    12  H    2.138586   0.965336   3.598261   3.425945   2.767697
    13  H    2.180835   2.921720   3.079096   0.954249   2.216690
    14  H    2.173886   3.793599   0.957717   2.885979   3.353151
    15  C    3.791896   4.590685   3.247826   5.186992   3.114587
    16  H    3.572603   4.684517   2.743547   4.704235   2.745474
    17  O    5.108347   5.703141   4.651897   6.425657   4.104066
    18  H    5.599886   6.390373   4.898224   6.791950   4.535253
    19  C    4.293536   5.193294   3.432614   5.804997   4.212864
    20  H    4.419209   5.008689   3.894266   6.067252   4.561204
    21  H    5.348754   6.266214   4.360567   6.800786   5.109181
    22  O    3.985980   5.223403   2.701691   5.326115   4.296272
    23  H    3.045081   4.400955   1.727885   4.343366   3.505193
    24  C    4.105864   4.381368   4.433091   4.797871   2.344981
    25  H    4.441445   5.061433   4.324281   5.158921   2.749095
    26  O    4.341312   4.588169   4.837392   4.507974   2.541597
    27  H    3.541044   3.920767   4.114169   3.549916   1.836609
    28  C    5.351149   5.261656   5.809896   6.140552   3.712069
    29  H    5.295029   4.850188   6.049999   6.122551   3.847444
    30  H    6.106672   6.032135   6.561317   6.666506   4.362394
    31  O    6.098491   6.119886   6.292820   7.114243   4.589660
    32  H    5.615650   5.797350   5.638431   6.771887   4.247114
    33  H    3.103309   2.616418   4.161867   4.053860   2.028603
                    6          7          8          9         10
     6  O    0.000000
     7  O    3.096642   0.000000
     8  C    1.353801   4.167837   0.000000
     9  H    2.057478   5.088568   1.120428   0.000000
    10  C    2.390583   4.360593   1.541819   2.142077   0.000000
    11  H    3.307747   0.954028   4.460016   5.251783   4.607678
    12  H    1.916104   2.789123   2.703785   3.198457   2.725026
    13  H    4.375750   3.447924   4.498380   5.432358   3.501233
    14  H    3.404753   2.053943   4.033427   5.117304   4.274344
    15  C    2.417289   4.822986   1.558326   2.121491   2.563192
    16  H    2.957788   4.740186   2.184138   2.978136   2.606415
    17  O    3.569056   6.236579   2.438131   2.355120   3.227370
    18  H    4.318873   6.740918   3.225327   3.286681   3.838212
    19  C    2.740118   4.793052   2.577702   3.049334   3.873528
    20  H    2.431533   4.704224   2.595608   2.839716   4.087614
    21  H    3.785619   5.858710   3.435816   3.699496   4.683513
    22  O    3.163495   4.191704   3.356662   4.119004   4.400985
    23  H    2.684754   3.330652   3.009979   3.955669   3.829378
    24  C    3.812846   5.778676   2.660290   2.913166   1.545151
    25  H    4.095061   6.052622   2.876058   3.220348   2.185803
    26  O    4.751841   6.091262   3.818843   4.198846   2.383386
    27  H    4.371008   5.284752   3.662959   4.261392   2.184774
    28  C    4.579285   6.947395   3.355383   3.058955   2.593461
    29  H    4.441108   6.808578   3.404589   2.959299   2.657551
    30  H    5.599775   7.774176   4.388670   4.152369   3.446985
    31  O    4.848464   7.565818   3.543681   2.982635   3.370837
    32  H    4.193851   6.987134   2.878179   2.364121   3.048794
    33  H    2.672611   4.576733   2.117737   2.340835   1.109044
                   11         12         13         14         15
    11  H    0.000000
    12  H    2.507179   0.000000
    13  H    3.748062   3.688011   0.000000
    14  H    3.003011   3.988832   3.508963   0.000000
    15  C    5.351600   4.098122   5.160975   4.010942   0.000000
    16  H    5.388989   4.406122   4.608345   3.581674   1.094767
    17  O    6.704407   5.141371   6.259965   5.443492   1.455101
    18  H    7.300070   5.909225   6.589974   5.681442   1.965422
    19  C    5.377339   4.637120   6.001992   3.893952   1.528003
    20  H    5.133055   4.312269   6.342595   4.254189   2.145767
    21  H    6.464241   5.691123   6.945960   4.805499   2.140422
    22  O    4.937905   4.862358   5.661468   2.914217   2.441881
    23  H    4.121069   4.163081   4.708792   2.006251   2.433586
    24  C    6.086627   4.226945   4.242739   5.377707   3.082294
    25  H    6.505142   4.887816   4.646865   5.279239   2.696752
    26  O    6.367812   4.715186   3.738431   5.744365   4.307418
    27  H    5.582046   4.192910   2.767880   4.975007   4.223105
    28  C    7.132109   4.943176   5.585544   6.737893   3.868224
    29  H    6.846514   4.485765   5.618875   6.927213   4.298746
    30  H    7.964408   5.826604   5.993012   7.504179   4.800412
    31  O    7.805452   5.632863   6.656959   7.203521   3.680268
    32  H    7.289450   5.254638   6.415747   6.521570   2.796902
    33  H    4.594600   2.344994   3.745826   4.945257   3.464642
                   16         17         18         19         20
    16  H    0.000000
    17  O    2.085354   0.000000
    18  H    2.182209   0.955076   0.000000
    19  C    2.133604   2.433574   2.754574   0.000000
    20  H    2.989431   2.933479   3.484968   1.096670   0.000000
    21  H    2.666342   2.431410   2.478672   1.100060   1.783929
    22  O    2.475895   3.600424   3.729103   1.401367   2.069696
    23  H    2.270641   3.806150   4.021460   1.933717   2.484150
    24  C    2.924610   3.152503   3.528938   4.597336   5.012872
    25  H    2.331749   2.619150   2.729551   4.189956   4.808585
    26  O    3.911834   4.513015   4.769305   5.778976   6.238566
    27  H    3.732985   4.735645   5.017246   5.586535   6.041899
    28  C    4.031250   3.430847   3.894700   5.340088   5.589070
    29  H    4.610277   4.024134   4.657015   5.683130   5.736680
    30  H    4.809116   4.291820   4.592191   6.300524   6.627014
    31  O    4.054747   2.755052   3.180063   5.003694   5.237450
    32  H    3.279454   1.798741   2.326235   4.059399   4.322304
    33  H    3.675712   4.006385   4.723865   4.670869   4.666191
                   21         22         23         24         25
    21  H    0.000000
    22  O    2.023927   0.000000
    23  H    2.802146   0.986583   0.000000
    24  C    5.144623   5.233747   4.794071   0.000000
    25  H    4.571043   4.792722   4.475693   1.099427   0.000000
    26  O    6.379727   6.193500   5.608346   1.421936   2.058948
    27  H    6.301261   5.810631   5.112280   1.867240   2.435002
    28  C    5.743130   6.249184   5.949655   1.528249   2.144571
    29  H    6.200887   6.612047   6.256473   2.149843   3.023987
    30  H    6.647861   7.150000   6.827546   2.128496   2.620122
    31  O    5.165090   6.115346   6.040282   2.482496   2.571614
    32  H    4.196258   5.208505   5.206424   2.452502   2.324376
    33  H    5.513093   5.259621   4.670879   2.123278   3.045345
                   26         27         28         29         30
    26  O    0.000000
    27  H    0.973352   0.000000
    28  C    2.376548   3.114686   0.000000
    29  H    2.822682   3.413266   1.098844   0.000000
    30  H    2.386635   3.308700   1.094380   1.768377   0.000000
    31  O    3.608218   4.302747   1.413454   2.071480   2.030860
    32  H    3.786419   4.314528   1.943961   2.564019   2.770594
    33  H    2.693498   2.556956   2.666038   2.271268   3.488160
                   31         32         33
    31  O    0.000000
    32  H    0.970493   0.000000
    33  H    3.605166   3.483001   0.000000
 Stoichiometry    C6H16O10Si(2-)
 Framework group  C1[X(C6H16O10Si)]
 Deg. of freedom    93
 Full point group                 C1      NOp   1
 Largest Abelian subgroup         C1      NOp   1
 Largest concise Abelian subgroup C1      NOp   1
                         Standard orientation:                         
 ---------------------------------------------------------------------
 Center     Atomic      Atomic             Coordinates (Angstroms)
 Number     Number       Type             X           Y           Z
 ---------------------------------------------------------------------
      1         14           0       -2.022024   -0.581753    0.022605
      2          8           0       -1.881669   -1.428244    1.540137
      3          8           0       -1.920053    0.702278   -1.179446
      4          8           0       -2.757147   -1.823954   -0.908662
      5          8           0       -0.349141   -1.127569   -0.517057
      6          8           0       -0.576931    0.826227    1.380048
      7          8           0       -3.495975    0.195701    0.561019
      8          6           0        0.643875    0.583473    0.847618
      9          1           0        1.461275    0.664302    1.609644
     10          6           0        0.728603   -0.848090    0.281354
     11          1           0       -3.705715   -0.247038    1.379652
     12          1           0       -1.350884   -0.796931    2.041719
     13          1           0       -2.042145   -2.374135   -1.219571
     14          1           0       -2.812845    1.048892   -1.177969
     15          6           0        1.036531    1.646186   -0.222355
     16          1           0        0.760901    1.283702   -1.217919
     17          8           0        2.479538    1.825459   -0.168401
     18          1           0        2.762308    2.132316   -1.027499
     19          6           0        0.351593    2.995840   -0.012384
     20          1           0        0.152431    3.123394    1.058480
     21          1           0        1.047929    3.783557   -0.336034
     22          8           0       -0.820000    3.135413   -0.768505
     23          1           0       -1.250763    2.248240   -0.795207
     24          6           0        1.991397   -1.271085   -0.502176
     25          1           0        2.223261   -0.531368   -1.281790
     26          8           0        1.692428   -2.514438   -1.123941
     27          1           0        0.724683   -2.449086   -1.205264
     28          6           0        3.243236   -1.478982    0.349425
     29          1           0        2.942528   -1.881905    1.326505
     30          1           0        3.852539   -2.240757   -0.146676
     31          8           0        4.051330   -0.331308    0.515803
     32          1           0        3.484851    0.449065    0.406365
     33          1           0        0.707520   -1.508266    1.172253
 ---------------------------------------------------------------------
 Rotational constants (GHZ):           0.5660979           0.3512769           0.2575847
 Standard basis: def2TZVPP (5D, 7F)
 There are   864 symmetry adapted cartesian basis functions of A   symmetry.
 There are   762 symmetry adapted basis functions of A   symmetry.
   762 basis functions,  1157 primitive gaussians,   864 cartesian basis functions
    74 alpha electrons       74 beta electrons
       nuclear repulsion energy      1692.7044833076 Hartrees.
 NAtoms=   33 NActive=   33 NUniq=   33 SFac= 1.00D+00 NAtFMM=   60 NAOKFM=F Big=F
 Integral buffers will be    131072 words long.
 Raffenetti 2 integral format.
 Two-electron integral symmetry is turned on.
 Nuclear repulsion after empirical dispersion term =     1692.6764145249 Hartrees.
 One-electron integrals computed using PRISM.
   1 Symmetry operations used in ECPInt.
 ECPInt:  NShTT=   41041 NPrTT=  113485 LenC2=   37162 LenP2D=   76096.
 LDataN:  DoStor=T MaxTD1= 6 Len=  172
 NBasis=   762 RedAO= T EigKep=  4.41D-05  NBF=   762
 NBsUse=   762 1.00D-06 EigRej= -1.00D+00 NBFU=   762
 ExpMin= 7.01D-02 ExpMax= 4.48D+04 ExpMxC= 1.53D+03 IAcc=3 IRadAn=         5 AccDes= 0.00D+00
 Harris functional with IExCor= 4639 and IRadAn=       5 diagonalized for initial guess.
 HarFok:  IExCor= 4639 AccDes= 0.00D+00 IRadAn=         5 IDoV= 1 UseB2=F ITyADJ=14
 ICtDFT=  3500011 ScaDFX=  1.000000  1.000000  1.000000  1.000000
 FoFCou: FMM=F IPFlag=           0 FMFlag=      100000 FMFlg1=           0
         NFxFlg=           0 DoJE=T BraDBF=F KetDBF=T FulRan=T
         wScrn=  0.000000 ICntrl=       500 IOpCl=  0 I1Cent=   200000004 NGrid=           0
         NMat0=    1 NMatS0=      1 NMatT0=    0 NMatD0=    1 NMtDS0=    0 NMtDT0=    0
 Petite list used in FoFCou.
 Requested convergence on RMS density matrix=1.00D-08 within 128 cycles.
 Requested convergence on MAX density matrix=1.00D-06.
 Requested convergence on             energy=1.00D-06.
 No special actions if energy rises.
 Integral accuracy reduced to 1.0D-05 until final iterations.
 Initial convergence to 1.0D-05 achieved.  Increase integral accuracy.
 SCF Done:  E(RwB97XD) =  -1280.31008836     A.U. after   15 cycles
            NFock= 15  Conv=0.42D-08     -V/T= 2.0037
 DoSCS=F DFT=T ScalE2(SS,OS)=  1.000000  1.000000
 Range of M.O.s used for correlation:     1   762
 NBasis=   762 NAE=    74 NBE=    74 NFC=     0 NFV=     0
 NROrb=    762 NOA=    74 NOB=    74 NVA=   688 NVB=   688

 **** Warning!!: The largest alpha MO coefficient is  0.27872616D+02

   1 Symmetry operations used in ECPInt.
 ECPInt:  NShTT=   41041 NPrTT=  113485 LenC2=   37162 LenP2D=   76096.
 LDataN:  DoStor=T MaxTD1= 7 Len=  274
 Number of processors reduced to   2 by ecpmxn.
 Symmetrizing basis deriv contribution to polar:
 IMax=3 JMax=2 DiffMx= 0.00D+00
 G2DrvN: will do    34 centers at a time, making    1 passes.
 Calling FoFCou, ICntrl=  3107 FMM=F I1Cent=   0 AccDes= 0.00D+00.
 End of G2Drv F.D. properties file   721 does not exist.
 End of G2Drv F.D. properties file   722 does not exist.
 End of G2Drv F.D. properties file   788 does not exist.
          IDoAtm=111111111111111111111111111111111
          Differentiating once with respect to nuclear coordinates.
 CalDSu exits because no D1Ps are significant.
          There are   102 degrees of freedom in the 1st order CPHF.  IDoFFX=6 NUNeed=     0.
     96 vectors produced by pass  0 Test12= 5.09D-14 1.00D-09 XBig12= 8.33D-02 3.84D-02.
 AX will form    48 AO Fock derivatives at one time.
     96 vectors produced by pass  1 Test12= 5.09D-14 1.00D-09 XBig12= 2.85D-02 1.69D-02.
     96 vectors produced by pass  2 Test12= 5.09D-14 1.00D-09 XBig12= 6.66D-04 2.62D-03.
     96 vectors produced by pass  3 Test12= 5.09D-14 1.00D-09 XBig12= 8.77D-06 3.21D-04.
     96 vectors produced by pass  4 Test12= 5.09D-14 1.00D-09 XBig12= 1.03D-07 2.78D-05.
     96 vectors produced by pass  5 Test12= 5.09D-14 1.00D-09 XBig12= 1.12D-09 2.91D-06.
     96 vectors produced by pass  6 Test12= 5.09D-14 1.00D-09 XBig12= 9.24D-12 2.30D-07.
     50 vectors produced by pass  7 Test12= 5.09D-14 1.00D-09 XBig12= 6.44D-14 1.81D-08.
      5 vectors produced by pass  8 Test12= 5.09D-14 1.00D-09 XBig12= 1.59D-15 2.01D-09.
      2 vectors produced by pass  9 Test12= 5.09D-14 1.00D-09 XBig12= 6.22D-16 1.33D-09.
 InvSVY:  IOpt=1 It=  1 EMax= 3.61D-16
 Solved reduced A of dimension   729 with   102 vectors.
 End of Minotr F.D. properties file   721 does not exist.
 End of Minotr F.D. properties file   722 does not exist.
 End of Minotr F.D. properties file   788 does not exist.

 **********************************************************************

            Population analysis using the SCF Density.

 **********************************************************************

 Orbital symmetries:
       Occupied  (A) (A) (A) (A) (A) (A) (A) (A) (A) (A) (A) (A)
                 (A) (A) (A) (A) (A) (A) (A) (A) (A) (A) (A) (A)
                 (A) (A) (A) (A) (A) (A) (A) (A) (A) (A) (A) (A)
                 (A) (A) (A) (A) (A) (A) (A) (A) (A) (A) (A) (A)
                 (A) (A) (A) (A) (A) (A) (A) (A) (A) (A) (A) (A)
                 (A) (A) (A) (A) (A) (A) (A) (A) (A) (A) (A) (A)
                 (A) (A)
       Virtual   (A) (A) (A) (A) (A) (A) (A) (A) (A) (A) (A) (A)
                 (A) (A) (A) (A) (A) (A) (A) (A) (A) (A) (A) (A)
                 (A) (A) (A) (A) (A) (A) (A) (A) (A) (A) (A) (A)
                 (A) (A) (A) (A) (A) (A) (A) (A) (A) (A) (A) (A)
                 (A) (A) (A) (A) (A) (A) (A) (A) (A) (A) (A) (A)
                 (A) (A) (A) (A) (A) (A) (A) (A) (A) (A) (A) (A)
                 (A) (A) (A) (A) (A) (A) (A) (A) (A) (A) (A) (A)
                 (A) (A) (A) (A) (A) (A) (A) (A) (A) (A) (A) (A)
                 (A) (A) (A) (A) (A) (A) (A) (A) (A) (A) (A) (A)
                 (A) (A) (A) (A) (A) (A) (A) (A) (A) (A) (A) (A)
                 (A) (A) (A) (A) (A) (A) (A) (A) (A) (A) (A) (A)
                 (A) (A) (A) (A) (A) (A) (A) (A) (A) (A) (A) (A)
                 (A) (A) (A) (A) (A) (A) (A) (A) (A) (A) (A) (A)
                 (A) (A) (A) (A) (A) (A) (A) (A) (A) (A) (A) (A)
                 (A) (A) (A) (A) (A) (A) (A) (A) (A) (A) (A) (A)
                 (A) (A) (A) (A) (A) (A) (A) (A) (A) (A) (A) (A)
                 (A) (A) (A) (A) (A) (A) (A) (A) (A) (A) (A) (A)
                 (A) (A) (A) (A) (A) (A) (A) (A) (A) (A) (A) (A)
                 (A) (A) (A) (A) (A) (A) (A) (A) (A) (A) (A) (A)
                 (A) (A) (A) (A) (A) (A) (A) (A) (A) (A) (A) (A)
                 (A) (A) (A) (A) (A) (A) (A) (A) (A) (A) (A) (A)
                 (A) (A) (A) (A) (A) (A) (A) (A) (A) (A) (A) (A)
                 (A) (A) (A) (A) (A) (A) (A) (A) (A) (A) (A) (A)
                 (A) (A) (A) (A) (A) (A) (A) (A) (A) (A) (A) (A)
                 (A) (A) (A) (A) (A) (A) (A) (A) (A) (A) (A) (A)
                 (A) (A) (A) (A) (A) (A) (A) (A) (A) (A) (A) (A)
                 (A) (A) (A) (A) (A) (A) (A) (A) (A) (A) (A) (A)
                 (A) (A) (A) (A) (A) (A) (A) (A) (A) (A) (A) (A)
                 (A) (A) (A) (A) (A) (A) (A) (A) (A) (A) (A) (A)
                 (A) (A) (A) (A) (A) (A) (A) (A) (A) (A) (A) (A)
                 (A) (A) (A) (A) (A) (A) (A) (A) (A) (A) (A) (A)
                 (A) (A) (A) (A) (A) (A) (A) (A) (A) (A) (A) (A)
                 (A) (A) (A) (A) (A) (A) (A) (A) (A) (A) (A) (A)
                 (A) (A) (A) (A) (A) (A) (A) (A) (A) (A) (A) (A)
                 (A) (A) (A) (A) (A) (A) (A) (A) (A) (A) (A) (A)
                 (A) (A) (A) (A) (A) (A) (A) (A) (A) (A) (A) (A)
                 (A) (A) (A) (A) (A) (A) (A) (A) (A) (A) (A) (A)
                 (A) (A) (A) (A) (A) (A) (A) (A) (A) (A) (A) (A)
                 (A) (A) (A) (A) (A) (A) (A) (A) (A) (A) (A) (A)
                 (A) (A) (A) (A) (A) (A) (A) (A) (A) (A) (A) (A)
                 (A) (A) (A) (A) (A) (A) (A) (A) (A) (A) (A) (A)
                 (A) (A) (A) (A) (A) (A) (A) (A) (A) (A) (A) (A)
                 (A) (A) (A) (A) (A) (A) (A) (A) (A) (A) (A) (A)
                 (A) (A) (A) (A) (A) (A) (A) (A) (A) (A) (A) (A)
                 (A) (A) (A) (A) (A) (A) (A) (A) (A) (A) (A) (A)
                 (A) (A) (A) (A) (A) (A) (A) (A) (A) (A) (A) (A)
                 (A) (A) (A) (A) (A) (A) (A) (A) (A) (A) (A) (A)
                 (A) (A) (A) (A) (A) (A) (A) (A) (A) (A) (A) (A)
                 (A) (A) (A) (A) (A) (A) (A) (A) (A) (A) (A) (A)
                 (A) (A) (A) (A) (A) (A) (A) (A) (A) (A) (A) (A)
                 (A) (A) (A) (A) (A) (A) (A) (A) (A) (A) (A) (A)
                 (A) (A) (A) (A) (A) (A) (A) (A) (A) (A) (A) (A)
                 (A) (A) (A) (A) (A) (A) (A) (A) (A) (A) (A) (A)
                 (A) (A) (A) (A) (A) (A) (A) (A) (A) (A) (A) (A)
                 (A) (A) (A) (A) (A) (A) (A) (A) (A) (A) (A) (A)
                 (A) (A) (A) (A) (A) (A) (A) (A) (A) (A) (A) (A)
                 (A) (A) (A) (A) (A) (A) (A) (A) (A) (A) (A) (A)
                 (A) (A) (A) (A)
 The electronic state is 1-A.
 Alpha  occ. eigenvalues --  -66.01198 -19.03872 -19.01058 -18.99788 -18.97072
 Alpha  occ. eigenvalues --  -18.93474 -18.92849 -18.92210 -18.91481 -18.90399
 Alpha  occ. eigenvalues --  -18.88126 -10.09660 -10.08524 -10.07665 -10.07213
 Alpha  occ. eigenvalues --  -10.05271 -10.04791  -5.11848  -3.46551  -3.46360
 Alpha  occ. eigenvalues --   -3.46262  -0.90998  -0.89187  -0.88053  -0.85277
 Alpha  occ. eigenvalues --   -0.82534  -0.79560  -0.77204  -0.76813  -0.75298
 Alpha  occ. eigenvalues --   -0.74084  -0.60649  -0.58193  -0.52932  -0.48122
 Alpha  occ. eigenvalues --   -0.44753  -0.40053  -0.38040  -0.36067  -0.34639
 Alpha  occ. eigenvalues --   -0.34200  -0.32381  -0.30912  -0.30139  -0.28837
 Alpha  occ. eigenvalues --   -0.27771  -0.27581  -0.26591  -0.26215  -0.24894
 Alpha  occ. eigenvalues --   -0.24309  -0.22636  -0.22173  -0.21166  -0.20547
 Alpha  occ. eigenvalues --   -0.19216  -0.17964  -0.16731  -0.15725  -0.14733
 Alpha  occ. eigenvalues --   -0.14239  -0.13463  -0.13304  -0.12627  -0.11123
 Alpha  occ. eigenvalues --   -0.11090  -0.09571  -0.09098  -0.08860  -0.07024
 Alpha  occ. eigenvalues --   -0.06570  -0.05177  -0.02072  -0.01618
 Alpha virt. eigenvalues --    0.30727   0.34635   0.35678   0.36497   0.38041
 Alpha virt. eigenvalues --    0.39112   0.39603   0.40317   0.41595   0.41995
 Alpha virt. eigenvalues --    0.42948   0.43437   0.44150   0.45253   0.46661
 Alpha virt. eigenvalues --    0.46792   0.47921   0.48536   0.49830   0.50651
 Alpha virt. eigenvalues --    0.50926   0.52087   0.52591   0.53208   0.54577
 Alpha virt. eigenvalues --    0.55347   0.55731   0.56342   0.57722   0.58379
 Alpha virt. eigenvalues --    0.59538   0.60172   0.60908   0.62781   0.62891
 Alpha virt. eigenvalues --    0.63766   0.64337   0.64931   0.65398   0.65430
 Alpha virt. eigenvalues --    0.66708   0.66853   0.67864   0.68609   0.68749
 Alpha virt. eigenvalues --    0.69074   0.70063   0.71234   0.71329   0.71666
 Alpha virt. eigenvalues --    0.71771   0.72611   0.72835   0.73230   0.73276
 Alpha virt. eigenvalues --    0.74292   0.74758   0.75206   0.75866   0.76240
 Alpha virt. eigenvalues --    0.76534   0.76944   0.77597   0.78664   0.79614
 Alpha virt. eigenvalues --    0.79934   0.80427   0.81012   0.81383   0.81993
 Alpha virt. eigenvalues --    0.82373   0.83130   0.83552   0.84466   0.85212
 Alpha virt. eigenvalues --    0.85839   0.86219   0.86994   0.87710   0.88015
 Alpha virt. eigenvalues --    0.89172   0.90048   0.90423   0.91385   0.92656
 Alpha virt. eigenvalues --    0.93318   0.94107   0.94481   0.94837   0.96105
 Alpha virt. eigenvalues --    0.96532   0.97417   0.97981   0.99852   0.99963
 Alpha virt. eigenvalues --    1.00506   1.01731   1.02327   1.03058   1.04177
 Alpha virt. eigenvalues --    1.04414   1.05305   1.06416   1.07495   1.08669
 Alpha virt. eigenvalues --    1.09584   1.10578   1.11835   1.12636   1.13347
 Alpha virt. eigenvalues --    1.14084   1.15011   1.15537   1.15687   1.16440
 Alpha virt. eigenvalues --    1.17285   1.17623   1.19146   1.19382   1.20289
 Alpha virt. eigenvalues --    1.22148   1.23180   1.23938   1.24453   1.26026
 Alpha virt. eigenvalues --    1.26350   1.28027   1.28642   1.29739   1.30065
 Alpha virt. eigenvalues --    1.30304   1.30666   1.31917   1.32264   1.33551
 Alpha virt. eigenvalues --    1.34103   1.34834   1.35725   1.35968   1.36636
 Alpha virt. eigenvalues --    1.37162   1.37910   1.38271   1.39620   1.41022
 Alpha virt. eigenvalues --    1.41450   1.42809   1.43052   1.44049   1.44860
 Alpha virt. eigenvalues --    1.45961   1.46365   1.47114   1.47551   1.48642
 Alpha virt. eigenvalues --    1.49602   1.49819   1.50047   1.50589   1.52554
 Alpha virt. eigenvalues --    1.53742   1.54625   1.55070   1.55828   1.57607
 Alpha virt. eigenvalues --    1.58154   1.59328   1.59607   1.59688   1.62183
 Alpha virt. eigenvalues --    1.62255   1.63727   1.64223   1.64996   1.66276
 Alpha virt. eigenvalues --    1.66573   1.68704   1.68771   1.69980   1.70770
 Alpha virt. eigenvalues --    1.72148   1.72920   1.73790   1.73987   1.74574
 Alpha virt. eigenvalues --    1.75472   1.76664   1.77694   1.78407   1.78925
 Alpha virt. eigenvalues --    1.80103   1.81415   1.82657   1.83153   1.83850
 Alpha virt. eigenvalues --    1.84105   1.85028   1.85790   1.87463   1.87841
 Alpha virt. eigenvalues --    1.88828   1.90105   1.91970   1.92412   1.93596
 Alpha virt. eigenvalues --    1.94599   1.96954   1.98384   1.99916   2.00528
 Alpha virt. eigenvalues --    2.02360   2.03442   2.05933   2.08546   2.08661
 Alpha virt. eigenvalues --    2.11658   2.12481   2.14601   2.16129   2.17233
 Alpha virt. eigenvalues --    2.18184   2.18872   2.19867   2.21460   2.22558
 Alpha virt. eigenvalues --    2.23891   2.24470   2.25600   2.25878   2.26308
 Alpha virt. eigenvalues --    2.27574   2.29387   2.29859   2.30700   2.30992
 Alpha virt. eigenvalues --    2.31777   2.32947   2.33758   2.34247   2.35309
 Alpha virt. eigenvalues --    2.36410   2.37105   2.37701   2.38242   2.39615
 Alpha virt. eigenvalues --    2.40926   2.41716   2.42474   2.43929   2.44330
 Alpha virt. eigenvalues --    2.45220   2.45390   2.46388   2.47126   2.49038
 Alpha virt. eigenvalues --    2.50529   2.51389   2.52777   2.53221   2.53631
 Alpha virt. eigenvalues --    2.54728   2.55752   2.57458   2.58590   2.59963
 Alpha virt. eigenvalues --    2.60603   2.61272   2.62459   2.65215   2.66436
 Alpha virt. eigenvalues --    2.68252   2.70041   2.71118   2.73136   2.74923
 Alpha virt. eigenvalues --    2.76587   2.77744   2.79058   2.79475   2.80104
 Alpha virt. eigenvalues --    2.81305   2.83618   2.83828   2.86925   2.87724
 Alpha virt. eigenvalues --    2.90559   2.92497   2.93666   2.95527   2.96123
 Alpha virt. eigenvalues --    2.98001   2.98890   2.99202   3.00107   3.01426
 Alpha virt. eigenvalues --    3.02627   3.03351   3.04711   3.05549   3.07455
 Alpha virt. eigenvalues --    3.07849   3.09175   3.10052   3.11294   3.12635
 Alpha virt. eigenvalues --    3.13085   3.15407   3.15872   3.17034   3.17709
 Alpha virt. eigenvalues --    3.19584   3.20753   3.22171   3.22594   3.23687
 Alpha virt. eigenvalues --    3.24899   3.26990   3.28037   3.29624   3.30439
 Alpha virt. eigenvalues --    3.31625   3.32656   3.33299   3.33964   3.34677
 Alpha virt. eigenvalues --    3.36351   3.37306   3.38221   3.38972   3.40056
 Alpha virt. eigenvalues --    3.40703   3.41877   3.42399   3.42820   3.44271
 Alpha virt. eigenvalues --    3.45119   3.46265   3.46763   3.47388   3.48675
 Alpha virt. eigenvalues --    3.49253   3.49660   3.50878   3.52136   3.52815
 Alpha virt. eigenvalues --    3.53980   3.54492   3.55416   3.56296   3.57135
 Alpha virt. eigenvalues --    3.57919   3.59900   3.60659   3.61910   3.62965
 Alpha virt. eigenvalues --    3.64669   3.65975   3.67071   3.67530   3.68201
 Alpha virt. eigenvalues --    3.69627   3.69730   3.70222   3.70958   3.71883
 Alpha virt. eigenvalues --    3.73382   3.74121   3.74675   3.75825   3.76210
 Alpha virt. eigenvalues --    3.76963   3.78446   3.79281   3.79758   3.80296
 Alpha virt. eigenvalues --    3.81512   3.82675   3.83315   3.83931   3.84676
 Alpha virt. eigenvalues --    3.86141   3.87638   3.87949   3.88648   3.90121
 Alpha virt. eigenvalues --    3.90370   3.91230   3.91729   3.93332   3.93880
 Alpha virt. eigenvalues --    3.95080   3.95677   3.97415   3.98019   3.99920
 Alpha virt. eigenvalues --    4.00422   4.01801   4.02885   4.03144   4.03697
 Alpha virt. eigenvalues --    4.04356   4.05021   4.05245   4.07163   4.07739
 Alpha virt. eigenvalues --    4.08597   4.09832   4.10519   4.10916   4.12374
 Alpha virt. eigenvalues --    4.13183   4.14930   4.15509   4.16360   4.18230
 Alpha virt. eigenvalues --    4.18978   4.20554   4.21434   4.21982   4.23217
 Alpha virt. eigenvalues --    4.23618   4.23955   4.25426   4.28081   4.28945
 Alpha virt. eigenvalues --    4.29083   4.29256   4.29788   4.30567   4.32271
 Alpha virt. eigenvalues --    4.32846   4.34698   4.35484   4.36370   4.37148
 Alpha virt. eigenvalues --    4.37751   4.38589   4.38945   4.40648   4.41906
 Alpha virt. eigenvalues --    4.43308   4.44590   4.45031   4.45308   4.46401
 Alpha virt. eigenvalues --    4.47065   4.47675   4.48334   4.49527   4.50395
 Alpha virt. eigenvalues --    4.50721   4.51401   4.52063   4.53283   4.53730
 Alpha virt. eigenvalues --    4.54696   4.55965   4.56728   4.58302   4.58882
 Alpha virt. eigenvalues --    4.61110   4.61547   4.62278   4.63047   4.63848
 Alpha virt. eigenvalues --    4.64726   4.65827   4.66255   4.66772   4.67694
 Alpha virt. eigenvalues --    4.69276   4.70367   4.70885   4.71624   4.74419
 Alpha virt. eigenvalues --    4.75316   4.76697   4.77402   4.78319   4.79783
 Alpha virt. eigenvalues --    4.81552   4.82550   4.82729   4.84893   4.85328
 Alpha virt. eigenvalues --    4.86385   4.86971   4.91344   4.94071   4.94831
 Alpha virt. eigenvalues --    4.96033   4.97261   4.97523   4.99121   5.01797
 Alpha virt. eigenvalues --    5.03519   5.04560   5.05970   5.08209   5.09050
 Alpha virt. eigenvalues --    5.10333   5.11492   5.12984   5.13452   5.15257
 Alpha virt. eigenvalues --    5.16454   5.17683   5.19330   5.20353   5.23831
 Alpha virt. eigenvalues --    5.26373   5.26726   5.27658   5.30093   5.30980
 Alpha virt. eigenvalues --    5.31684   5.32469   5.33497   5.33923   5.34754
 Alpha virt. eigenvalues --    5.36663   5.38155   5.40162   5.41398   5.42286
 Alpha virt. eigenvalues --    5.42963   5.45130   5.46274   5.48857   5.49945
 Alpha virt. eigenvalues --    5.50912   5.51807   5.53579   5.55342   5.56779
 Alpha virt. eigenvalues --    5.59455   5.60659   5.63380   5.64846   5.65541
 Alpha virt. eigenvalues --    5.68764   5.68990   5.69852   5.71197   5.72725
 Alpha virt. eigenvalues --    5.74562   5.75708   5.78166   5.79153   5.79964
 Alpha virt. eigenvalues --    5.81455   5.82596   5.83396   5.84825   5.87347
 Alpha virt. eigenvalues --    5.88730   5.89089   5.90489   5.90784   5.92175
 Alpha virt. eigenvalues --    5.93024   5.94276   5.94857   5.96631   5.97710
 Alpha virt. eigenvalues --    5.98598   5.98856   6.00448   6.00823   6.02692
 Alpha virt. eigenvalues --    6.03680   6.05623   6.05859   6.06370   6.08246
 Alpha virt. eigenvalues --    6.10834   6.11351   6.14521   6.21997   6.23477
 Alpha virt. eigenvalues --    6.24647   6.31573   6.32956   6.36786   6.41398
 Alpha virt. eigenvalues --    6.42202   6.43597   6.46626   6.47004   6.48340
 Alpha virt. eigenvalues --    6.50619   6.53286   6.62915   6.68360   6.77325
 Alpha virt. eigenvalues --    6.80852   6.83205   6.83877   6.85288   6.88675
 Alpha virt. eigenvalues --    6.89074   6.89759   6.90958   6.92438   6.93787
 Alpha virt. eigenvalues --    6.94513   6.96212   6.97226   6.97917   6.99656
 Alpha virt. eigenvalues --    7.01356   7.02413   7.02969   7.03339   7.03799
 Alpha virt. eigenvalues --    7.04764   7.05213   7.05670   7.06492   7.07437
 Alpha virt. eigenvalues --    7.08733   7.09158   7.10457   7.11320   7.12366
 Alpha virt. eigenvalues --    7.12780   7.14407   7.16612   7.17592   7.17890
 Alpha virt. eigenvalues --    7.19725   7.21935   7.23933   7.25244   7.25647
 Alpha virt. eigenvalues --    7.27646   7.29300   7.31213   7.31949   7.33386
 Alpha virt. eigenvalues --    7.34972   7.35453   7.41440   7.43299   7.44406
 Alpha virt. eigenvalues --    7.48275   7.50300   7.51652   7.52090   7.55009
 Alpha virt. eigenvalues --    7.56536   7.58860   7.64471   7.66374   7.67432
 Alpha virt. eigenvalues --    7.69908   7.70723   7.76175   7.77682   7.77786
 Alpha virt. eigenvalues --    7.79490   7.83756   7.85073   7.85528   7.87668
 Alpha virt. eigenvalues --    7.96467   7.96900   7.99748   8.03803   8.05580
 Alpha virt. eigenvalues --    8.09666  12.13075  23.39629  23.46422  23.60946
 Alpha virt. eigenvalues --   23.63299  23.70703  23.71875  44.23839  44.27837
 Alpha virt. eigenvalues --   44.39623  44.42328  44.44698  44.52513  44.53044
 Alpha virt. eigenvalues --   44.56690  44.70555  44.89037
          Condensed to atoms (all electrons):
               1          2          3          4          5          6
     1  Si  11.556100   0.335922   0.298066   0.455010   0.212488   0.125651
     2  O    0.335922   8.110454   0.000767  -0.044101  -0.042183  -0.059055
     3  O    0.298066   0.000767   7.979865  -0.047781  -0.042740  -0.020366
     4  O    0.455010  -0.044101  -0.047781   7.959097  -0.064558   0.000018
     5  O    0.212488  -0.042183  -0.042740  -0.064558   8.298031  -0.003010
     6  O    0.125651  -0.059055  -0.020366   0.000018  -0.003010   8.416647
     7  O    0.397105  -0.091550  -0.090304  -0.057271   0.006318  -0.011365
     8  C   -0.071478   0.004233  -0.001705  -0.004022  -0.087654   0.427364
     9  H    0.007798  -0.000366  -0.000582   0.000003   0.006971  -0.032533
    10  C   -0.053289  -0.000721   0.005341  -0.002037   0.252903  -0.114639
    11  H   -0.049279   0.028082   0.006946   0.001465   0.000104   0.001673
    12  H   -0.054859   0.311942  -0.001009   0.001533   0.007685   0.047269
    13  H   -0.039905   0.001498   0.001429   0.309038   0.010069  -0.000366
    14  H   -0.031649   0.000005   0.310877   0.000456   0.003686   0.003300
    15  C   -0.004411  -0.001190   0.012076   0.000852   0.001028  -0.150142
    16  H   -0.000047   0.000079   0.006239  -0.000399   0.020645   0.008776
    17  O    0.000499   0.000001   0.000071  -0.000000   0.000400   0.002327
    18  H   -0.000035  -0.000002   0.000007   0.000000   0.000197  -0.000779
    19  C    0.004617   0.000087  -0.011066  -0.000012  -0.001221   0.014798
    20  H   -0.001358   0.000121   0.000624   0.000003   0.000086   0.021168
    21  H    0.000665   0.000001  -0.000648  -0.000001  -0.000014   0.002506
    22  O    0.002071  -0.000003  -0.041633  -0.000014   0.000144  -0.006044
    23  H   -0.006238  -0.000374   0.081640   0.000003  -0.000130   0.000902
    24  C    0.007610   0.004185  -0.001167  -0.000656  -0.018557   0.015392
    25  H    0.001104  -0.000108  -0.000187   0.000065   0.006894   0.000888
    26  O    0.000317  -0.000123  -0.000028   0.000029  -0.041876  -0.000362
    27  H   -0.003803   0.000437   0.000152   0.000046   0.061561  -0.000141
    28  C   -0.000898   0.000356  -0.000008  -0.000021   0.005622  -0.001821
    29  H    0.000137  -0.000209  -0.000002   0.000003   0.000008   0.000023
    30  H   -0.000061   0.000003   0.000000  -0.000001  -0.000283   0.000024
    31  O    0.000012  -0.000001   0.000000   0.000000  -0.000060   0.000074
    32  H   -0.000018  -0.000002  -0.000002   0.000000  -0.000083   0.000017
    33  H    0.008034   0.024570  -0.000414   0.000264  -0.057544   0.005379
               7          8          9         10         11         12
     1  Si   0.397105  -0.071478   0.007798  -0.053289  -0.049279  -0.054859
     2  O   -0.091550   0.004233  -0.000366  -0.000721   0.028082   0.311942
     3  O   -0.090304  -0.001705  -0.000582   0.005341   0.006946  -0.001009
     4  O   -0.057271  -0.004022   0.000003  -0.002037   0.001465   0.001533
     5  O    0.006318  -0.087654   0.006971   0.252903   0.000104   0.007685
     6  O   -0.011365   0.427364  -0.032533  -0.114639   0.001673   0.047269
     7  O    8.093088  -0.003381  -0.000138  -0.001741   0.308559   0.005353
     8  C   -0.003381   5.354841   0.370476   0.070525  -0.000244   0.002202
     9  H   -0.000138   0.370476   0.859288  -0.055880   0.000017  -0.004355
    10  C   -0.001741   0.070525  -0.055880   5.446878  -0.000203  -0.011729
    11  H    0.308559  -0.000244   0.000017  -0.000203   0.579490   0.002582
    12  H    0.005353   0.002202  -0.004355  -0.011729   0.002582   0.511823
    13  H    0.003655   0.000156  -0.000014  -0.000488  -0.000610  -0.000613
    14  H    0.006530  -0.000581   0.000089  -0.000174  -0.000666  -0.000249
    15  C    0.000967  -0.085491  -0.147316   0.032893   0.000080   0.006850
    16  H    0.000095  -0.012173   0.018070  -0.048268  -0.000023  -0.000181
    17  O   -0.000000  -0.056429  -0.004292   0.021005  -0.000000  -0.000042
    18  H    0.000000   0.011389  -0.000896  -0.003785   0.000000   0.000013
    19  C   -0.000222  -0.001875   0.009734  -0.002220  -0.000025  -0.000720
    20  H    0.000102   0.010592   0.002106  -0.000557  -0.000004  -0.000022
    21  H   -0.000007   0.016117   0.000118  -0.000668  -0.000001  -0.000010
    22  O   -0.000191   0.015338  -0.000414  -0.005722  -0.000000   0.000074
    23  H    0.000035  -0.000120  -0.000131   0.001502   0.000004  -0.000177
    24  C    0.000140  -0.032415  -0.000889   0.027586  -0.000017   0.000172
    25  H   -0.000006  -0.024848   0.000260  -0.049174   0.000001  -0.000099
    26  O    0.000000   0.012909  -0.000261  -0.019217  -0.000000  -0.000062
    27  H   -0.000013   0.004981  -0.000143  -0.028053  -0.000002  -0.000164
    28  C   -0.000003   0.011253   0.004628   0.006884  -0.000001  -0.000323
    29  H   -0.000000  -0.002356  -0.003281  -0.000154   0.000001  -0.000025
    30  H    0.000000   0.000626   0.000849   0.008439  -0.000000   0.000002
    31  O    0.000000   0.002728   0.004706  -0.000897   0.000000   0.000011
    32  H   -0.000000  -0.000851   0.005742   0.004299  -0.000000  -0.000012
    33  H    0.000367  -0.089305  -0.008110   0.327505  -0.000235   0.003685
              13         14         15         16         17         18
     1  Si  -0.039905  -0.031649  -0.004411  -0.000047   0.000499  -0.000035
     2  O    0.001498   0.000005  -0.001190   0.000079   0.000001  -0.000002
     3  O    0.001429   0.310877   0.012076   0.006239   0.000071   0.000007
     4  O    0.309038   0.000456   0.000852  -0.000399  -0.000000   0.000000
     5  O    0.010069   0.003686   0.001028   0.020645   0.000400   0.000197
     6  O   -0.000366   0.003300  -0.150142   0.008776   0.002327  -0.000779
     7  O    0.003655   0.006530   0.000967   0.000095  -0.000000   0.000000
     8  C    0.000156  -0.000581  -0.085491  -0.012173  -0.056429   0.011389
     9  H   -0.000014   0.000089  -0.147316   0.018070  -0.004292  -0.000896
    10  C   -0.000488  -0.000174   0.032893  -0.048268   0.021005  -0.003785
    11  H   -0.000610  -0.000666   0.000080  -0.000023  -0.000000   0.000000
    12  H   -0.000613  -0.000249   0.006850  -0.000181  -0.000042   0.000013
    13  H    0.586668  -0.000146   0.000075  -0.000099  -0.000000  -0.000001
    14  H   -0.000146   0.580832  -0.001472  -0.000017  -0.000012   0.000003
    15  C    0.000075  -0.001472   5.826073   0.347230   0.147004  -0.052329
    16  H   -0.000099  -0.000017   0.347230   0.653773  -0.052758  -0.009086
    17  O   -0.000000  -0.000012   0.147004  -0.052758   7.979711   0.313635
    18  H   -0.000001   0.000003  -0.052329  -0.009086   0.313635   0.593044
    19  C    0.000020   0.000867   0.199245  -0.020943  -0.021580   0.000359
    20  H    0.000000  -0.000211  -0.120746   0.014170   0.007262  -0.000967
    21  H    0.000001   0.000005  -0.017497  -0.008187   0.008821   0.003076
    22  O    0.000001   0.000883  -0.103731   0.017648   0.004576   0.000403
    23  H   -0.000068  -0.001490   0.007440  -0.000128  -0.000345  -0.000162
    24  C   -0.000721   0.000051   0.027044   0.012446  -0.022702  -0.000049
    25  H   -0.000034   0.000032  -0.002524  -0.008047   0.020951   0.004529
    26  O   -0.000239   0.000002  -0.002512  -0.000510   0.000341  -0.000049
    27  H    0.002974  -0.000039  -0.001273   0.000197   0.000059  -0.000018
    28  C    0.000039  -0.000002  -0.011993   0.001019   0.001922  -0.000055
    29  H   -0.000004   0.000000  -0.000136   0.000080  -0.000176   0.000206
    30  H   -0.000002   0.000000   0.000107  -0.000002  -0.000179  -0.000019
    31  O   -0.000000   0.000000  -0.002794   0.000011  -0.029076   0.003416
    32  H    0.000000   0.000000  -0.005042   0.000791   0.053175  -0.006911
    33  H   -0.000458   0.000048   0.016065   0.000955  -0.000193   0.000302
              19         20         21         22         23         24
     1  Si   0.004617  -0.001358   0.000665   0.002071  -0.006238   0.007610
     2  O    0.000087   0.000121   0.000001  -0.000003  -0.000374   0.004185
     3  O   -0.011066   0.000624  -0.000648  -0.041633   0.081640  -0.001167
     4  O   -0.000012   0.000003  -0.000001  -0.000014   0.000003  -0.000656
     5  O   -0.001221   0.000086  -0.000014   0.000144  -0.000130  -0.018557
     6  O    0.014798   0.021168   0.002506  -0.006044   0.000902   0.015392
     7  O   -0.000222   0.000102  -0.000007  -0.000191   0.000035   0.000140
     8  C   -0.001875   0.010592   0.016117   0.015338  -0.000120  -0.032415
     9  H    0.009734   0.002106   0.000118  -0.000414  -0.000131  -0.000889
    10  C   -0.002220  -0.000557  -0.000668  -0.005722   0.001502   0.027586
    11  H   -0.000025  -0.000004  -0.000001  -0.000000   0.000004  -0.000017
    12  H   -0.000720  -0.000022  -0.000010   0.000074  -0.000177   0.000172
    13  H    0.000020   0.000000   0.000001   0.000001  -0.000068  -0.000721
    14  H    0.000867  -0.000211   0.000005   0.000883  -0.001490   0.000051
    15  C    0.199245  -0.120746  -0.017497  -0.103731   0.007440   0.027044
    16  H   -0.020943   0.014170  -0.008187   0.017648  -0.000128   0.012446
    17  O   -0.021580   0.007262   0.008821   0.004576  -0.000345  -0.022702
    18  H    0.000359  -0.000967   0.003076   0.000403  -0.000162  -0.000049
    19  C    4.677007   0.451156   0.307732   0.339134  -0.055054   0.002355
    20  H    0.451156   0.708941  -0.073763  -0.044991   0.000421  -0.000092
    21  H    0.307732  -0.073763   0.823593  -0.048211   0.007672   0.000120
    22  O    0.339134  -0.044991  -0.048211   8.008029   0.345063   0.000798
    23  H   -0.055054   0.000421   0.007672   0.345063   0.380520  -0.000441
    24  C    0.002355  -0.000092   0.000120   0.000798  -0.000441   5.222236
    25  H   -0.000741  -0.000317  -0.000101  -0.000355  -0.000016   0.368402
    26  O   -0.000031   0.000004  -0.000000  -0.000000   0.000003   0.242730
    27  H    0.000057   0.000003  -0.000002  -0.000000  -0.000018  -0.061975
    28  C    0.000220   0.000030  -0.000007  -0.000020  -0.000012   0.213186
    29  H   -0.000085  -0.000007   0.000000   0.000000  -0.000001  -0.066720
    30  H    0.000013  -0.000002  -0.000000  -0.000000   0.000000  -0.007433
    31  O   -0.000129   0.000017  -0.000001   0.000001   0.000000  -0.055894
    32  H    0.000107  -0.000156   0.000221  -0.000037   0.000013  -0.004781
    33  H   -0.001231  -0.000409   0.000061   0.000026  -0.000023  -0.011636
              25         26         27         28         29         30
     1  Si   0.001104   0.000317  -0.003803  -0.000898   0.000137  -0.000061
     2  O   -0.000108  -0.000123   0.000437   0.000356  -0.000209   0.000003
     3  O   -0.000187  -0.000028   0.000152  -0.000008  -0.000002   0.000000
     4  O    0.000065   0.000029   0.000046  -0.000021   0.000003  -0.000001
     5  O    0.006894  -0.041876   0.061561   0.005622   0.000008  -0.000283
     6  O    0.000888  -0.000362  -0.000141  -0.001821   0.000023   0.000024
     7  O   -0.000006   0.000000  -0.000013  -0.000003  -0.000000   0.000000
     8  C   -0.024848   0.012909   0.004981   0.011253  -0.002356   0.000626
     9  H    0.000260  -0.000261  -0.000143   0.004628  -0.003281   0.000849
    10  C   -0.049174  -0.019217  -0.028053   0.006884  -0.000154   0.008439
    11  H    0.000001  -0.000000  -0.000002  -0.000001   0.000001  -0.000000
    12  H   -0.000099  -0.000062  -0.000164  -0.000323  -0.000025   0.000002
    13  H   -0.000034  -0.000239   0.002974   0.000039  -0.000004  -0.000002
    14  H    0.000032   0.000002  -0.000039  -0.000002   0.000000   0.000000
    15  C   -0.002524  -0.002512  -0.001273  -0.011993  -0.000136   0.000107
    16  H   -0.008047  -0.000510   0.000197   0.001019   0.000080  -0.000002
    17  O    0.020951   0.000341   0.000059   0.001922  -0.000176  -0.000179
    18  H    0.004529  -0.000049  -0.000018  -0.000055   0.000206  -0.000019
    19  C   -0.000741  -0.000031   0.000057   0.000220  -0.000085   0.000013
    20  H   -0.000317   0.000004   0.000003   0.000030  -0.000007  -0.000002
    21  H   -0.000101  -0.000000  -0.000002  -0.000007   0.000000  -0.000000
    22  O   -0.000355  -0.000000  -0.000000  -0.000020   0.000000  -0.000000
    23  H   -0.000016   0.000003  -0.000018  -0.000012  -0.000001   0.000000
    24  C    0.368402   0.242730  -0.061975   0.213186  -0.066720  -0.007433
    25  H    0.765700  -0.036705   0.001826  -0.079329   0.018399  -0.010547
    26  O   -0.036705   7.983488   0.341646  -0.052762   0.008681   0.003927
    27  H    0.001826   0.341646   0.457305   0.012958  -0.000717  -0.001033
    28  C   -0.079329  -0.052762   0.012958   4.858202   0.386678   0.369737
    29  H    0.018399   0.008681  -0.000717   0.386678   0.730023  -0.061885
    30  H   -0.010547   0.003927  -0.001033   0.369737  -0.061885   0.699552
    31  O    0.011690   0.004079  -0.000523   0.276509  -0.046675  -0.039491
    32  H    0.003005  -0.000252  -0.000009  -0.050668   0.001109   0.006694
    33  H    0.014301   0.004309   0.003878  -0.020231   0.017174  -0.000975
              31         32         33
     1  Si   0.000012  -0.000018   0.008034
     2  O   -0.000001  -0.000002   0.024570
     3  O    0.000000  -0.000002  -0.000414
     4  O    0.000000   0.000000   0.000264
     5  O   -0.000060  -0.000083  -0.057544
     6  O    0.000074   0.000017   0.005379
     7  O    0.000000  -0.000000   0.000367
     8  C    0.002728  -0.000851  -0.089305
     9  H    0.004706   0.005742  -0.008110
    10  C   -0.000897   0.004299   0.327505
    11  H    0.000000  -0.000000  -0.000235
    12  H    0.000011  -0.000012   0.003685
    13  H   -0.000000   0.000000  -0.000458
    14  H    0.000000   0.000000   0.000048
    15  C   -0.002794  -0.005042   0.016065
    16  H    0.000011   0.000791   0.000955
    17  O   -0.029076   0.053175  -0.000193
    18  H    0.003416  -0.006911   0.000302
    19  C   -0.000129   0.000107  -0.001231
    20  H    0.000017  -0.000156  -0.000409
    21  H   -0.000001   0.000221   0.000061
    22  O    0.000001  -0.000037   0.000026
    23  H    0.000000   0.000013  -0.000023
    24  C   -0.055894  -0.004781  -0.011636
    25  H    0.011690   0.003005   0.014301
    26  O    0.004079  -0.000252   0.004309
    27  H   -0.000523  -0.000009   0.003878
    28  C    0.276509  -0.050668  -0.020231
    29  H   -0.046675   0.001109   0.017174
    30  H   -0.039491   0.006694  -0.000975
    31  O    7.968069   0.364325   0.000798
    32  H    0.364325   0.407539  -0.000642
    33  H    0.000798  -0.000642   0.781677
 Mulliken charges:
               1
     1  Si   0.904123
     2  O   -0.582757
     3  O   -0.444459
     4  O   -0.507012
     5  O   -0.534927
     6  O   -0.693574
     7  O   -0.566124
     8  C    0.159199
     9  H   -0.031255
    10  C    0.193855
    11  H    0.122305
    12  H    0.173454
    13  H    0.128146
    14  H    0.129041
    15  C    0.085568
    16  H    0.058647
    17  O   -0.373975
    18  H    0.144565
    19  C    0.109646
    20  H    0.026793
    21  H   -0.021593
    22  O   -0.482821
    23  H    0.239711
    24  C    0.141693
    25  H   -0.004908
    26  O   -0.447477
    27  H    0.209845
    28  C    0.068912
    29  H    0.019912
    30  H    0.031941
    31  O   -0.460907
    32  H    0.222428
    33  H   -0.017993
 Sum of Mulliken charges =  -2.00000
 Mulliken charges with hydrogens summed into heavy atoms:
               1
     1  Si   0.904123
     2  O   -0.409303
     3  O   -0.315418
     4  O   -0.378866
     5  O   -0.534927
     6  O   -0.693574
     7  O   -0.443819
     8  C    0.127944
    10  C    0.175862
    15  C    0.144215
    17  O   -0.229410
    19  C    0.114846
    22  O   -0.243111
    24  C    0.136785
    26  O   -0.237632
    28  C    0.120765
    31  O   -0.238479
 APT charges:
               1
     1  Si  -0.209938
     2  O   -0.370778
     3  O   -0.788549
     4  O   -0.259692
     5  O   -0.432171
     6  O   -0.527847
     7  O   -0.595152
     8  C   -0.426686
     9  H    0.245628
    10  C   -0.138956
    11  H    0.444226
    12  H    0.173325
    13  H    0.232967
    14  H    0.615336
    15  C    0.254330
    16  H    0.082372
    17  O   -0.796510
    18  H    0.568795
    19  C   -0.781722
    20  H    0.262843
    21  H    0.496243
    22  O   -0.108570
    23  H   -0.019670
    24  C   -0.111677
    25  H    0.115908
    26  O   -0.197449
    27  H    0.095267
    28  C   -0.738996
    29  H    0.220825
    30  H    0.612621
    31  O   -0.043189
    32  H   -0.086060
    33  H    0.212927
 Sum of APT charges =  -2.00000
 APT charges with hydrogens summed into heavy atoms:
               1
     1  Si  -0.209938
     2  O   -0.197454
     3  O   -0.173212
     4  O   -0.026725
     5  O   -0.432171
     6  O   -0.527847
     7  O   -0.150926
     8  C   -0.181058
    10  C    0.073971
    15  C    0.336702
    17  O   -0.227715
    19  C   -0.022636
    22  O   -0.128240
    24  C    0.004231
    26  O   -0.102182
    28  C    0.094449
    31  O   -0.129249
 Electronic spatial extent (au):  <R**2>=           4468.7011
 Charge=             -2.0000 electrons
 Dipole moment (field-independent basis, Debye):
    X=              6.3472    Y=              1.2923    Z=             -1.6247  Tot=              6.6780
 Quadrupole moment (field-independent basis, Debye-Ang):
   XX=           -181.5180   YY=           -151.0961   ZZ=           -126.7685
   XY=              2.7241   XZ=             -4.3924   YZ=             -2.3893
 Traceless Quadrupole moment (field-independent basis, Debye-Ang):
   XX=            -28.3904   YY=              2.0314   ZZ=             26.3591
   XY=              2.7241   XZ=             -4.3924   YZ=             -2.3893
 Octapole moment (field-independent basis, Debye-Ang**2):
  XXX=            -28.7306  YYY=            -30.0946  ZZZ=             -8.3400  XYY=             17.9785
  XXY=             49.7542  XXZ=            -16.6861  XZZ=              6.5393  YZZ=              4.8719
  YYZ=              5.0085  XYZ=            -17.2004
 Hexadecapole moment (field-independent basis, Debye-Ang**3):
 XXXX=          -4114.1352 YYYY=          -2237.4220 ZZZZ=           -613.3640 XXXY=            -12.0588
 XXXZ=           -131.8576 YYYX=             90.7134 YYYZ=             39.9957 ZZZX=            -14.3964
 ZZZY=             -1.2760 XXYY=           -972.2518 XXZZ=           -652.1832 YYZZ=           -458.4595
 XXYZ=            -63.3134 YYXZ=             10.2058 ZZXY=             15.2591
 N-N= 1.692676414525D+03 E-N=-6.452141071029D+03  KE= 1.275629773258D+03
  Exact polarizability:       0.000       0.000       0.000       0.000       0.000       0.000
 Approx polarizability:     162.048       1.271     154.054       1.197      -0.815     148.584
   1 Symmetry operations used in ECPInt.
 ECPInt:  NShTT=   41041 NPrTT=  113485 LenC2=   37162 LenP2D=   76096.
 LDataN:  DoStor=T MaxTD1= 8 Len=  415
 Calling FoFJK, ICntrl=    100127 FMM=F ISym2X=0 I1Cent= 0 IOpClX= 0 NMat=1 NMatS=1 NMatT=0.
 ***** Axes restored to original set *****
 -------------------------------------------------------------------
 Center     Atomic                   Forces (Hartrees/Bohr)
 Number     Number              X              Y              Z
 -------------------------------------------------------------------
      1       14           0.003704219   -0.002288900    0.001936369
      2        8          -0.000006646    0.000009204    0.000010387
      3        8          -0.000014127   -0.000004524   -0.000004123
      4        8           0.000011937    0.000006679    0.000021985
      5        8          -0.014262899    0.007205921   -0.004581025
      6        8          -0.003244960   -0.010237962   -0.009246185
      7        8          -0.000005055    0.000019761    0.000018793
      8        6           0.007913434    0.011975398    0.002835879
      9        1           0.000001401   -0.000002409   -0.000001196
     10        6           0.005954814   -0.006684196    0.009010054
     11        1          -0.000006867   -0.000006590   -0.000004012
     12        1          -0.000007134   -0.000012664   -0.000001035
     13        1          -0.000007598    0.000005707   -0.000007316
     14        1           0.000001350    0.000002546    0.000001728
     15        6           0.000002591    0.000013278   -0.000004896
     16        1           0.000000628   -0.000001381    0.000002957
     17        8          -0.000001157   -0.000015642   -0.000008227
     18        1          -0.000001675    0.000001219    0.000010088
     19        6          -0.000003204    0.000003035    0.000008551
     20        1           0.000001167   -0.000003141    0.000003560
     21        1          -0.000001643   -0.000000925   -0.000000425
     22        8          -0.000001244    0.000000770   -0.000008489
     23        1           0.000001878    0.000010031    0.000011626
     24        6          -0.000016939    0.000012168    0.000015973
     25        1          -0.000002239    0.000000756   -0.000000778
     26        8          -0.000049868    0.000009372   -0.000006124
     27        1           0.000045394   -0.000004586    0.000007534
     28        6           0.000015015    0.000002406   -0.000009618
     29        1          -0.000007980   -0.000003981    0.000001643
     30        1          -0.000001060   -0.000006649   -0.000008835
     31        8          -0.000014452   -0.000007350    0.000001231
     32        1           0.000004629    0.000000103   -0.000008690
     33        1          -0.000001712    0.000002547    0.000002614
 -------------------------------------------------------------------
 Cartesian Forces:  Max     0.014262899 RMS     0.002973439
 FormGI is forming the generalized inverse of G from B-inverse, IUseBI=4.

 GradGradGradGradGradGradGradGradGradGradGradGradGradGradGradGradGradGrad
 Berny optimization.
 Internal  Forces:  Max     0.013899688 RMS     0.002347303
 Search for a saddle point.
 Step number   1 out of a maximum of  176
 All quantities printed in internal units (Hartrees-Bohrs-Radians)
 Swapping is turned off.
 Second derivative matrix not updated -- analytic derivatives used.
 ITU=  0
     Eigenvalues ---   -0.05180   0.00102   0.00131   0.00154   0.00212
     Eigenvalues ---    0.00354   0.00490   0.00532   0.00748   0.00957
     Eigenvalues ---    0.01357   0.01613   0.01965   0.02419   0.02618
     Eigenvalues ---    0.03023   0.04266   0.04418   0.04529   0.04954
     Eigenvalues ---    0.05152   0.05532   0.05838   0.05853   0.06075
     Eigenvalues ---    0.06237   0.06484   0.06640   0.06952   0.07419
     Eigenvalues ---    0.08025   0.08454   0.08819   0.09254   0.09732
[...]
 0088696,-0.00056110,-0.00140563,0.00594896,0.00149089,0.01133576,-0.00
 005851,0.00007475,0.00001959,0.00013065,0.00059457,-0.00000648,-0.0000
 2160,-0.00013451,-0.00015499,0.00009484,-0.00001515,0.00005341,0.00416
 196,-0.00021999,0.00027220,-0.00037975,0.00022810,-0.00050185,-0.00414
 956,0.00357138,-0.00099544,0.00013394,-0.00019321,0.00029930,-0.000050
 49,-0.00019813,-0.00005784,0.00000332,0.00002835,0.00000736,-0.0000749
 4,-0.00028033,0.00005720,-0.00099243,-0.00013963,-0.00027866,0.0004197
 1,0.00061276,0.00008926,0.03102981,-0.08118773,0.02052496,0.01603777,-
 0.00451048,0.01355246,-0.03282119,-0.00737172,-0.02293447,-0.00130815,
 -0.00470971,-0.00467405,-0.04208365,0.55375798,-0.00172005,0.00084534,
 0.00150109,0.00013706,0.00025392,-0.00090610,0.00027453,-0.00048057,0.
 00003335,0.00063663,0.00026958,-0.00000251,0.00757857,-0.00105744,-0.0
 0179725,-0.00053869,-0.00064183,-0.00066175,0.00010198,-0.00008058,-0.
 00018704,0.00149432,0.00106810,0.00082939,-0.00069877,-0.00060779,-0.0
 0088677,0.00436782,0.00220329,0.01442384,0.00000545,0.00001801,0.00001
 450,0.00006266,-0.00000684,0.00020787,-0.00014165,-0.00016930,-0.00005
 421,0.00001279,-0.00006417,0.00007583,-0.00043073,0.00034715,-0.000549
 70,0.00004074,0.00027992,0.00000476,-0.00061490,0.00012380,-0.00004592
 ,0.00009323,-0.00000332,0.00006134,0.00006099,-0.00004723,0.00013287,0
 .00000138,0.00001807,-0.00002113,-0.00001260,-0.00001811,0.00000133,-0
 .00014413,-0.00010369,-0.00006714,0.00011525,0.00018767,0.00003869,-0.
 04188783,0.02021587,-0.11793558,-0.02270487,0.00747089,-0.01571324,-0.
 01317112,-0.00586114,-0.00810895,0.00070998,-0.00093571,-0.00078090,-0
 .04827029,0.00495621,0.55610091,-0.00023843,0.00001102,-0.00011658,0.0
 0013722,0.00003260,-0.00000845,0.00003093,0.00000830,0.00004546,0.0000
 7524,0.00006137,0.00004637,0.00032002,-0.00005764,0.00084298,0.0001564
 6,-0.00000708,0.00003716,0.00007260,-0.00001625,0.00001479,-0.00028031
 ,-0.00002915,0.00007152,0.00007288,0.00005387,0.00012934,0.00043109,0.
 00137979,-0.00272051,-0.00002625,0.00000649,0.00000237,-0.00007104,-0.
 00000735,0.00004839,-0.00001076,-0.00002507,-0.00001457,-0.00000581,-0
 .00000408,-0.00000555,-0.00029795,-0.00016546,-0.00026043,0.00007957,0
 .00002164,0.00016046,0.00057562,-0.00026510,0.00011826,-0.00008567,-0.
 00001329,-0.00004291,0.00002085,0.00003599,0.00011387,-0.00000442,0.00
 002985,-0.00000765,-0.00000238,0.00000361,0.00000242,0.00009230,-0.000
 02906,0.00003541,-0.00001971,-0.00002032,-0.00001944,0.00580726,0.0095
 2519,-0.02471021,-0.00349574,0.00093714,-0.00284522,0.00023627,-0.0001
 0579,0.00123777,0.00010538,-0.00019563,0.00001787,-0.06423694,-0.01477
 942,0.05811333,0.07608304,0.00019992,-0.00005897,0.00018083,-0.0000956
 6,0.00003149,-0.00008366,-0.00001358,0.00010426,-0.00008028,-0.0000454
 6,-0.00001984,-0.00005570,-0.00036627,0.00015530,-0.00058352,-0.000244
 53,0.00016094,-0.00015888,-0.00005106,0.00002867,-0.00004138,0.0003606
 0,-0.00014397,0.00035218,-0.00026849,-0.00012964,-0.00026301,-0.000702
 17,0.00009917,0.00066455,0.00002467,-0.00000463,0.00000038,0.00006014,
 -0.00002249,0.00001497,0.00000414,0.00001288,0.00002076,-0.00001140,0.
 00000033,0.00000721,-0.00072606,-0.00013808,0.00008681,0.00006699,0.00
 001052,-0.00010551,0.00115484,-0.00065219,-0.00007897,-0.00009985,0.00
 019943,-0.00005385,0.00003235,0.00004555,0.00000813,0.00000975,-0.0000
 4633,-0.00001500,0.00001379,0.00006556,-0.00001761,0.00014808,0.000004
 78,-0.00000448,-0.00006065,-0.00008573,0.00002391,-0.00116922,-0.00105
 282,0.00835512,0.00068634,-0.00034521,0.00090307,0.00103072,0.00108449
 ,0.00078272,-0.00017698,0.00018636,0.00053637,-0.01076058,-0.06720686,
 0.05771636,0.02627560,0.08156771,0.00019200,0.00017078,-0.00035873,0.0
 0003872,-0.00022361,0.00026433,-0.00005214,-0.00009348,0.00007445,-0.0
 0004982,-0.00006847,0.00007578,-0.00015117,-0.00032456,0.00089127,-0.0
 0008849,0.00009913,0.00027992,0.00000223,-0.00005384,0.00008180,-0.000
 56314,-0.00016916,-0.00007206,0.00021689,0.00000992,0.00015255,0.00287
 808,-0.00030423,-0.00082917,-0.00002293,0.00001083,0.00000057,-0.00001
 355,0.00013092,-0.00005260,0.00003093,0.00003625,-0.00003383,0.0000217
 1,0.00000596,-0.00001334,0.00041958,-0.00009753,-0.00015259,0.00006081
 ,-0.00008460,0.00015514,-0.00043783,0.00035283,0.00015586,-0.00001461,
 -0.00021923,-0.00001665,0.00003111,-0.00003139,0.00007417,-0.00001990,
 0.00005968,0.00001972,-0.00000652,-0.00002882,0.00000902,-0.00012558,0
 .00000241,0.00001079,0.00007342,0.00005606,-0.00002279,0.00513660,0.00
 872270,-0.01809640,-0.00280014,0.00021934,-0.00168259,-0.00170322,-0.0
 0171545,0.00095465,0.00026287,-0.00015583,-0.00040696,0.05654036,0.060
 35969,-0.25497481,-0.06383228,-0.07279158,0.27265351,0.00122333,-0.000
 17047,-0.00022162,-0.00030268,-0.00012668,0.00022799,-0.00023042,0.000
 21892,-0.00014899,-0.00037454,-0.00026592,-0.00015686,-0.00320105,0.00
 018209,0.00008652,-0.00038613,0.00024256,0.00016281,-0.00018940,0.0000
 4181,0.00000916,0.00040496,-0.00039336,-0.00004094,-0.00009354,0.00008
 943,-0.00004212,-0.00003541,-0.00043205,-0.00479674,0.00005139,-0.0000
 1319,0.00000088,0.00009232,0.00000699,-0.00007535,0.00004886,0.0001293
 4,0.00007282,-0.00000627,0.00003817,-0.00001927,-0.00038316,-0.0001679
 3,0.00012562,0.00003251,-0.00004191,0.00000664,0.00060552,-0.00022558,
 0.00023326,0.00001352,-0.00002869,-0.00000115,0.00008569,-0.00001138,-
 0.00001807,-0.00001037,-0.00002150,0.00001097,0.00002160,0.00007458,-0
 .00002050,0.00001736,0.00007945,-0.00002471,-0.00001825,-0.00009972,0.
 00001524,-0.01784701,0.01833978,0.01346415,0.00033382,-0.00004095,-0.0
 0036775,0.00236206,-0.00027497,0.00056298,-0.00024042,0.00012871,0.000
 32435,-0.12859735,0.10486875,0.06468415,-0.00369398,0.00631822,0.00358
 564,0.13857739,-0.00054902,-0.00006525,0.00003004,0.00015362,0.0001213
 5,-0.00008197,0.00011466,0.00001923,0.00006662,0.00017201,0.00013315,0
 .00007518,0.00069186,0.00028249,-0.00005174,0.00044027,-0.00005987,-0.
 00016721,0.00011610,0.00000354,-0.00000687,-0.00020615,0.00018388,0.00
 006369,0.00000343,0.00000469,0.00008653,-0.00087107,-0.00017885,0.0017
 9086,-0.00002827,0.00000139,-0.00000233,-0.00006787,-0.00007683,0.0000
 4572,-0.00003720,-0.00005594,-0.00003341,-0.00001386,-0.00001372,-0.00
 000408,-0.00052900,-0.00009951,0.00000918,0.00006711,0.00001350,-0.000
 00006,0.00095601,-0.00068025,0.00035078,0.00006383,0.00000894,-0.00000
 143,-0.00002785,0.00006759,-0.00001236,0.00001242,-0.00001104,-0.00001
 442,-0.00000415,0.00000020,0.00000581,0.00018432,-0.00005343,0.0000633
 6,-0.00006927,-0.00003549,-0.00001741,0.00673907,-0.00578387,-0.005614
 34,-0.00009199,-0.00000907,0.00019335,-0.00330554,0.00153660,-0.000090
 33,-0.00001505,-0.00023313,-0.00036279,0.09983725,-0.16511021,-0.07315
 936,-0.00345214,0.00816634,0.00367263,-0.10182614,0.19908697,0.0000203
 0,-0.00020273,-0.00027778,0.00009482,0.00002381,0.00013627,0.00001261,
 0.00007291,0.00002902,-0.00004156,-0.00000382,0.00000715,-0.00170227,0
 .00004176,0.00053770,0.00039985,0.00007115,0.00003946,0.00006506,0.000
 00518,0.00002696,-0.00056837,-0.00011732,-0.00023097,0.00024789,0.0000
 6587,0.00025960,-0.00007485,-0.00025310,-0.00302259,-0.00002302,-0.000
 00038,-0.00000229,-0.00008351,-0.00003435,-0.00000307,-0.00001931,0.00
 000528,0.00000573,-0.00000462,0.00000534,-0.00001437,-0.00004735,0.000
 00901,0.00002312,-0.00001685,-0.00004370,0.00005994,0.00013370,-0.0001
 6814,0.00008999,0.00001533,0.00001271,0.00000652,-0.00002374,0.0000343
 8,-0.00001278,0.00000504,0.00000668,-0.00000375,-0.00000730,-0.0000083
 7,0.00000779,0.00007964,-0.00001236,0.00003426,-0.00003994,-0.00002688
 ,-0.00001796,-0.01355913,0.01256581,0.00781524,0.00054309,-0.00015535,
 0.00033055,0.00095850,0.00152793,0.00148950,-0.00006836,0.00024064,0.0
 0013613,0.06511260,-0.07780787,-0.10246182,0.01822138,-0.02042776,-0.0
 1346037,-0.06610485,0.08694156,0.10411930,0.00218863,-0.00024728,-0.00
 000044,-0.00072131,-0.00016471,0.00031057,-0.00041707,0.00032071,-0.00
 030512,-0.00053280,-0.00019776,-0.00018605,-0.00180763,0.00083211,-0.0
 0032099,-0.00149297,0.00068822,0.00036842,-0.00054013,0.00016542,0.000
 04281,0.00061318,-0.00033903,0.00043693,-0.00114234,-0.00000823,-0.000
 20271,0.00063810,0.00000213,0.00097627,0.00014859,-0.00004662,-0.00000
 895,0.00026950,0.00009855,-0.00019031,0.00022855,0.00013300,0.00012243
 ,0.00000637,0.00002721,0.00000188,0.00081934,0.00008168,0.00024792,-0.
 00000129,-0.00002400,-0.00001407,-0.00008733,0.00835848,-0.00329726,-0
 .00170762,0.00119756,0.00004730,-0.00004335,-0.00028940,-0.00012657,-0
 .00007878,0.00000720,0.00011126,0.00009889,0.00007154,-0.00009337,-0.0
 0035706,0.00036006,-0.00009166,0.00007202,-0.00015529,0.00005274,-0.01
 319644,-0.03338969,0.00133926,0.00234130,-0.00022331,0.00098937,-0.008
 61498,-0.00064566,-0.00425555,0.00057679,-0.00181076,-0.00144503,-0.14
 459388,-0.04403678,-0.01311156,-0.00964318,-0.01954293,0.00081108,0.01
 344894,0.00601558,-0.00271075,0.36192068,0.00142162,-0.00281857,-0.000
 70248,-0.00034172,0.00100073,0.00028113,0.00014898,0.00138894,-0.00005
 686,-0.00037648,0.00039985,-0.00001183,-0.00358084,0.00257559,0.000401
 45,0.00242864,0.00219479,-0.00030005,-0.00006989,0.00050221,-0.0000181
 6,-0.00314744,-0.00238463,-0.00085616,0.00143199,0.00025210,0.00103143
 ,0.00086872,-0.00174818,-0.00057518,0.00007846,-0.00009714,-0.00003837
 ,-0.00013699,-0.00079509,-0.00003177,0.00017415,0.00001643,0.00012046,
 -0.00014566,-0.00004683,-0.00003140,-0.00675955,-0.00265779,0.00053025
 ,0.00086581,-0.00027082,0.00038254,0.01478969,-0.01075840,0.00554376,0
 .00097902,-0.00057112,-0.00064173,0.00047387,0.00075536,0.00006953,0.0
 0005515,-0.00023150,-0.00011495,0.00006879,0.00056799,-0.00007788,0.00
 202865,-0.00002271,0.00045836,-0.00078357,-0.00103307,-0.00008155,-0.0
 0334060,-0.00856902,0.00126354,0.00127346,0.00206897,-0.00200402,-0.00
 535922,0.00281815,-0.00124372,0.00129920,-0.00091065,-0.00084424,-0.08
 918252,-0.18937327,-0.01408711,-0.01943232,-0.02268515,0.00362986,-0.0
 2381983,-0.03612277,-0.00323933,-0.09506754,0.58349427,0.00042954,-0.0
 0054339,-0.00097862,-0.00004749,0.00008181,0.00040654,-0.00010180,0.00
 004798,0.00022438,-0.00014068,0.00002063,0.00013996,-0.00082544,0.0007
 8400,0.00120013,0.00157789,0.00019254,0.00070072,-0.00002125,0.0000661
 9,0.00016369,-0.00292640,-0.00048591,-0.00260763,0.00184550,0.00022687
 ,0.00158248,0.00026135,-0.00112131,-0.00123392,-0.00001597,-0.00002116
 ,-0.00001154,-0.00007155,-0.00012611,-0.00009853,0.00009655,0.00003524
 ,-0.00001526,0.00000574,0.00002405,-0.00004290,0.00204936,0.00100710,0
 .00025574,0.00003634,-0.00020059,0.00026278,-0.00464265,0.00474626,0.0
 0185198,0.00055916,-0.00131522,0.00029864,-0.00026007,-0.00011329,-0.0
 0009877,-0.00005784,0.00013776,0.00012106,-0.00002198,-0.00013953,0.00
 000794,-0.00028066,0.00011195,0.00009802,0.00007853,0.00006173,-0.0000
 9056,-0.00975043,-0.01660097,0.00033324,0.00184570,-0.00249514,0.00284
 488,-0.00756024,-0.00210555,-0.00190113,0.00032522,-0.00137255,-0.0012
 9078,-0.00849422,0.00114371,-0.06575075,0.01405477,0.02374163,0.012989
 08,-0.00954121,-0.00923576,0.00458519,0.05127559,-0.02381744,0.0568141
 0,-0.00090360,-0.00118541,-0.00040946,0.00032563,0.00063381,-0.0000849
 2,0.00035461,0.00040936,0.00021540,0.00021476,0.00035248,0.00015446,-0
 .00003971,0.00115153,0.00037710,0.00232884,0.00072355,-0.00032641,0.00
 034279,0.00012776,-0.00002351,-0.00254683,-0.00063749,-0.00043956,0.00
 012721,0.00019960,0.00120228,-0.00055706,-0.00134649,0.00005034,-0.000
 06647,-0.00001373,-0.00001169,-0.00024709,-0.00048873,0.00012070,-0.00
 003923,-0.00009655,-0.00003902,-0.00006941,-0.00003215,-0.00001758,-0.
 00545670,0.00154735,-0.00098121,0.00034795,-0.00007963,0.00016999,-0.0
 0463159,-0.00258303,0.00304024,0.00288860,-0.00217387,0.00021677,-0.00
 006194,0.00029303,0.00002242,0.00009911,-0.00008944,-0.00013557,-0.000
 03497,0.00014280,0.00002983,0.00105192,-0.00017984,0.00027219,-0.00038
 995,-0.00032049,-0.00008129,0.00084134,-0.00435776,0.00010983,0.000136
 32,-0.00019204,-0.00122616,-0.00160382,0.00131290,-0.00028240,0.000321
 74,-0.00035193,-0.00031295,0.01592597,-0.02524091,0.00202156,-0.001747
 96,-0.00252579,0.00061324,-0.00191356,-0.00450680,-0.00052542,-0.19824
 225,0.22283707,-0.02908009,0.19310609,-0.00071190,0.00181273,0.0001543
 7,0.00015358,-0.00061645,-0.00011993,-0.00024568,-0.00111103,0.0001259
 7,0.00016940,-0.00031581,-0.00001179,0.00193999,-0.00146541,-0.0001599
 5,-0.00078421,-0.00194113,0.00088648,-0.00005005,-0.00031790,0.0000816
 8,0.00045680,0.00224304,-0.00173287,0.00057290,0.00008530,0.00019579,-
 0.00184296,0.00089864,0.00013645,-0.00003693,0.00005129,0.00002721,0.0
 0009298,0.00050565,-0.00000237,-0.00008430,0.00000149,-0.00005307,0.00
 012253,0.00005318,0.00001713,0.00832502,0.00383455,-0.00091165,-0.0013
 4416,0.00007405,-0.00021332,-0.00650642,-0.00602350,-0.00131507,-0.001
 68442,0.00052263,0.00047223,-0.00066395,-0.00099191,-0.00016176,-0.000
 09228,0.00031471,0.00018006,-0.00000772,-0.00053804,0.00006755,-0.0021
 8501,0.00026245,-0.00045522,0.00079430,0.00095035,0.00001977,-0.001179
 73,0.00271446,-0.00268422,-0.00102233,0.00008612,-0.00033369,0.0030892
 2,0.00039897,0.00117484,-0.00064305,0.00073772,0.00047840,0.01137111,-
 0.03797146,0.00157532,0.00093734,0.00045160,-0.00072196,-0.00276480,-0
 .00116216,0.00116932,0.17753966,-0.31790521,0.02749479,-0.18379958,0.3
 5493513,0.00006996,0.00015883,0.00070421,-0.00002210,-0.00008285,-0.00
 016795,0.00008677,0.00027357,-0.00027261,0.00003302,0.00004831,-0.0000
 7841,0.00011051,-0.00016050,-0.00060858,-0.00184772,0.00034868,-0.0007
 9540,-0.00002111,0.00001469,-0.00012375,0.00353701,-0.00039610,0.00363
 256,-0.00131590,-0.00027716,-0.00214872,-0.00055088,0.00062762,0.00017
 621,0.00002559,0.00000711,-0.00000058,0.00005306,0.00008431,0.00003399
 ,-0.00001483,-0.00002078,0.00001583,-0.00003078,-0.00002915,0.00001815
 ,-0.00448822,-0.00188447,-0.00021442,0.00014514,0.00019350,-0.00027235
 ,0.00636549,-0.00331789,-0.00421331,-0.00167179,0.00321098,-0.00143116
 ,0.00047817,0.00032402,0.00016596,0.00008097,-0.00023275,-0.00019195,0
 .00002963,0.00026940,-0.00002446,0.00081940,-0.00014785,0.00001526,-0.
 00027100,-0.00031950,0.00008420,-0.00044623,-0.00362845,0.00275413,-0.
 00051820,0.00015809,-0.00206606,0.00030765,0.00158282,-0.00043619,-0.0
 0018478,0.00012132,0.00006940,0.00472900,-0.00510485,-0.00188467,0.000
 72488,0.00188656,-0.00015460,-0.00183468,-0.00442816,-0.00081452,-0.03
 024008,0.03602673,-0.01141933,0.02564403,-0.02555060,0.01998130,0.0029
 6168,0.00106301,-0.00501086,-0.00083347,-0.00121564,0.00142957,-0.0008
 4908,0.00063195,0.00014066,-0.00039350,-0.00028737,0.00061372,-0.01097
 842,0.01401598,-0.03302055,-0.00014732,0.00039327,-0.00004732,0.000375
 82,-0.00039726,0.00054687,0.00155279,-0.00011697,0.00013824,-0.0000853
 1,-0.00030987,0.00023913,-0.04623775,-0.01547304,0.02587873,-0.0003068
 6,0.00007978,0.00002608,-0.00171018,0.00143368,0.00073223,0.00022948,0
 .00033705,-0.00005406,-0.00017167,0.00028532,-0.00009284,0.00010712,-0
 .00028182,0.00038367,-0.00016773,-0.00004029,-0.00013711,0.00032797,-0
 .00003837,-0.00014937,-0.00000226,0.00013510,0.00001890,-0.00020287,0.
 00002718,-0.00001400,0.00003714,-0.00001701,-0.00003004,0.00003674,0.0
 0001319,-0.00004026,0.00020429,0.00015437,0.00005514,-0.00013698,-0.00
 026177,-0.00004215,-0.00880697,-0.01570165,0.02209115,-0.00363064,0.00
 167749,0.00301624,0.00192715,0.00002840,-0.00234886,-0.00049476,0.0006
 3707,0.00023899,0.00045000,-0.00201265,0.00293477,-0.00043623,0.000474
 53,-0.00103396,0.00020428,0.00003383,-0.00028861,-0.00015045,0.0003209
 3,-0.00060128,0.00013926,0.00008466,0.00021802,0.06718871,-0.00147806,
 0.00029841,0.00240509,-0.00172019,0.00058019,-0.00150546,0.00032385,0.
 00009724,-0.00018686,0.00061716,0.00019385,-0.00006171,0.00518204,0.00
 869408,-0.00063464,-0.00105763,0.00395704,-0.00108252,-0.00007234,0.00
 023675,-0.00035176,-0.00619392,-0.02402598,0.02447810,-0.00072517,0.00
 084847,-0.00047294,-0.01617255,-0.13910467,0.10722042,0.00013229,-0.00
 004703,-0.00001253,0.00167054,-0.00079643,-0.00021274,-0.00012496,-0.0
 0020727,-0.00015637,-0.00003342,-0.00004037,0.00007983,0.00214512,-0.0
 0478085,-0.00414797,0.00015689,0.00055300,-0.00001932,-0.00067808,0.00
 028629,-0.00008460,-0.00007417,-0.00009504,0.00009030,-0.00122459,-0.0
 0054854,0.00128825,0.00004793,-0.00005016,-0.00007691,0.00009268,-0.00
 062657,-0.00001886,0.00063675,-0.00008475,0.00009537,-0.00030417,-0.00
 016285,0.00007365,0.00377839,0.00279072,-0.00670997,0.00115339,-0.0002
 1856,-0.00112949,-0.00029509,0.00189321,0.00046800,0.00026066,-0.00035
 052,-0.00016454,-0.00038217,0.00016659,-0.00022529,-0.00071464,0.00021
 654,-0.00045526,-0.00003374,0.00012151,-0.00029788,0.00028987,0.000966
 56,-0.00023030,0.00047042,-0.00057406,0.00024452,0.01432690,0.14981320
 ,0.00539757,-0.00077151,-0.00466405,0.00321315,-0.00133350,0.00178664,
 -0.00105177,0.00106178,0.00010262,-0.00115709,-0.00059210,0.00016958,-
 0.02083737,0.00886832,-0.02783288,-0.00096101,0.00028394,0.00124404,-0
 .00005633,-0.00018847,0.00058776,0.00000225,-0.00785408,0.00642348,0.0
 0039849,0.00094822,0.00127418,0.02405201,0.10816703,-0.17789224,-0.000
 14354,0.00003473,-0.00000055,0.00029362,0.00054615,-0.00000769,0.00033
 631,0.00056418,0.00009300,-0.00006464,0.00022354,-0.00010699,0.0010496
 5,-0.00242436,-0.00016485,-0.00006755,-0.00030984,0.00019269,0.0002304
 8,0.00021529,0.00012927,-0.00002801,-0.00013409,-0.00006458,-0.0005143
 5,-0.00044724,0.00034863,-0.00002801,0.00002498,0.00006574,0.00007122,
 -0.00022528,0.00002231,0.00031908,0.00030543,0.00013228,-0.00024581,-0
 .00046659,-0.00012527,0.00668927,0.01351882,-0.01617942,0.00228421,-0.
 00125454,-0.00148600,-0.00038952,-0.00091186,0.00261955,-0.00125838,0.
 00116093,-0.00092270,-0.00131318,0.00062210,-0.00063552,0.00054499,-0.
 00052037,0.00148491,-0.00015835,-0.00011128,0.00058284,-0.00053341,-0.
 00096479,0.00065916,-0.00028312,0.00017009,-0.00033218,-0.01579086,-0.
 11820560,0.21249621\\0.00000780,0.00000227,-0.00000777,0.00000126,0.00
 000239,-0.00000019,-0.00000724,-0.00000310,-0.00000095,-0.00000247,-0.
 00000047,0.00000066,0.00000094,-0.00001146,0.00000870,-0.00000175,-0.0
 0000239,-0.00000338,-0.00000003,0.00000705,0.00000018,-0.00000236,0.00
 000239,-0.00000733,-0.00000096,0.00000057,0.00000083,-0.00000567,0.000
 00632,0.00000827,-0.00000329,-0.00000100,-0.00000366,0.00000481,0.0000
 0250,0.00000128,-0.00000066,-0.00000154,0.00000286,-0.00000197,-0.0000
 0274,-0.00000356,0.00000275,0.00000243,0.00000050,0.00000033,-0.000001
 36,-0.00000038,-0.00000036,0.00000042,-0.00000330,0.00000135,-0.000003
 32,-0.00000203,-0.00000059,0.00000038,-0.00000372,-0.00000045,0.000000
 53,-0.00000373,0.00000167,-0.00000041,-0.00000303,0.00000687,0.0000050
 0,-0.00000392,0.00000317,-0.00000175,-0.00000330,-0.00000125,0.0000000
 3,-0.00000396,-0.00000028,-0.00000108,0.00000225,-0.00000161,-0.000001
 91,0.00000492,0.00000086,-0.00000081,0.00000350,0.00000133,-0.00000028
 ,0.00000351,-0.00000217,0.00000107,0.00000406,0.00000021,-0.00000064,0
 .00000542,0.00000092,-0.00000385,-0.00000084,-0.00000101,0.00000476,0.
 00000515,-0.00000013,-0.00000001,0.00000295\\\@
 The archive entry for this job was punched.


 ...THOSE SCIENCES ARE VAIN AND FULL OF ERRORS WHICH 
 ARE NOT BORN FROM EXPERIMENT, THE MOTHER OF CERTAINTY...

                          -- LEONARDO DA VINCI, 1452-1519
 Job cpu time:       0 days 23 hours 58 minutes 34.5 seconds.
 Elapsed time:       0 days  6 hours  0 minutes 33.6 seconds.
 File lengths (MBytes):  RWF=   1393 Int=      0 D2E=      0 Chk=     47 Scr=      1
 Normal termination of Gaussian 16 at Tue Feb  6 08:06:32 2024.
