 Entering Gaussian System, Link 0=/opt/software/gaussian/g16.c01/g16
 Initial command:
 /opt/software/gaussian/g16.c01/l1.exe "/scratch/arhender/17209093/Gau-55859.inp" -scrdir="/scratch/arhender/17209093/"
 Entering Link 1 = /opt/software/gaussian/g16.c01/l1.exe PID=     55860.
  
 Copyright (c) 1988-2019, Gaussian, Inc.  All Rights Reserved.
  
 This is part of the Gaussian(R) 16 program.  It is based on
 the Gaussian(R) 09 system (copyright 2009, Gaussian, Inc.),
 the Gaussian(R) 03 system (copyright 2003, Gaussian, Inc.),
 the Gaussian(R) 98 system (copyright 1998, Gaussian, Inc.),
 the Gaussian(R) 94 system (copyright 1995, Gaussian, Inc.),
 the Gaussian 92(TM) system (copyright 1992, Gaussian, Inc.),
 the Gaussian 90(TM) system (copyright 1990, Gaussian, Inc.),
 the Gaussian 88(TM) system (copyright 1988, Gaussian, Inc.),
 the Gaussian 86(TM) system (copyright 1986, Carnegie Mellon
 University), and the Gaussian 82(TM) system (copyright 1983,
 Carnegie Mellon University). Gaussian is a federally registered
 trademark of Gaussian, Inc.
  
 This software contains proprietary and confidential information,
 including trade secrets, belonging to Gaussian, Inc.
  
 This software is provided under written license and may be
 used, copied, transmitted, or stored only in accord with that
 written license.
  
 The following legend is applicable only to US Government
 contracts under FAR:
  
                    RESTRICTED RIGHTS LEGEND
  
 Use, reproduction and disclosure by the US Government is
 subject to restrictions as set forth in subparagraphs (a)
 and (c) of the Commercial Computer Software - Restricted
 Rights clause in FAR 52.227-19.
  
 Gaussian, Inc.
 340 Quinnipiac St., Bldg. 40, Wallingford CT 06492
  
  
 ---------------------------------------------------------------
 Warning -- This program may not be used in any manner that
 competes with the business of Gaussian, Inc. or will provide
 assistance to any competitor of Gaussian, Inc.  The licensee
 of this program is prohibited from giving any competitor of
 Gaussian, Inc. access to this program.  By using this program,
 the user acknowledges that Gaussian, Inc. is engaged in the
 business of creating and licensing software in the field of
 computational chemistry and represents and warrants to the
 licensee that it is not a competitor of Gaussian, Inc. and that
 it will not use this program in any manner prohibited above.
 ---------------------------------------------------------------
  

 Cite this work as:
 Gaussian 16, Revision C.01,
 M. J. Frisch, G. W. Trucks, H. B. Schlegel, G. E. Scuseria, 
 M. A. Robb, J. R. Cheeseman, G. Scalmani, V. Barone, 
 G. A. Petersson, H. Nakatsuji, X. Li, M. Caricato, A. V. Marenich, 
 J. Bloino, B. G. Janesko, R. Gomperts, B. Mennucci, H. P. Hratchian, 
 J. V. Ortiz, A. F. Izmaylov, J. L. Sonnenberg, D. Williams-Young, 
 F. Ding, F. Lipparini, F. Egidi, J. Goings, B. Peng, A. Petrone, 
 T. Henderson, D. Ranasinghe, V. G. Zakrzewski, J. Gao, N. Rega, 
 G. Zheng, W. Liang, M. Hada, M. Ehara, K. Toyota, R. Fukuda, 
 J. Hasegawa, M. Ishida, T. Nakajima, Y. Honda, O. Kitao, H. Nakai, 
 T. Vreven, K. Throssell, J. A. Montgomery, Jr., J. E. Peralta, 
 F. Ogliaro, M. J. Bearpark, J. J. Heyd, E. N. Brothers, K. N. Kudin, 
 V. N. Staroverov, T. A. Keith, R. Kobayashi, J. Normand, 
 K. Raghavachari, A. P. Rendell, J. C. Burant, S. S. Iyengar, 
 J. Tomasi, M. Cossi, J. M. Millam, M. Klene, C. Adamo, R. Cammi, 
 J. W. Ochterski, R. L. Martin, K. Morokuma, O. Farkas, 
 J. B. Foresman, and D. J. Fox, Gaussian, Inc., Wallingford CT, 2019.
 
 ******************************************
 Gaussian 16:  ES64L-G16RevC.01  3-Jul-2019
                23-Feb-2024 
 ******************************************
 %chk=ProductOpt_MannAttQ0.chk
 %mem=1600MB
 %nprocs=4
 Will use up to    4 processors via shared memory.
 ---------------------------------------------
 # opt freq wb97xd/def2tzvpp geom=connectivity
 ---------------------------------------------
 1/18=20,19=15,26=3,38=1,57=2/1,3;
 2/9=110,12=2,17=6,18=5,40=1/2;
 3/5=44,7=202,11=2,25=1,30=1,71=1,74=-58/1,2,3;
 4//1;
 5/5=2,38=5/2;
 6/7=2,8=2,9=2,10=2,28=1/1;
 7//1,2,3,16;
 1/18=20,19=15,26=3/3(2);
 2/9=110/2;
 99//99;
 2/9=110/2;
 3/5=44,7=202,11=2,25=1,30=1,71=1,74=-58/1,2,3;
 4/5=5,16=3,69=1/1;
 5/5=2,38=5/2;
 7//1,2,3,16;
 1/18=20,19=15,26=3/3(-5);
 2/9=110/2;
 6/7=2,8=2,9=2,10=2,19=2,28=1/1;
 99/9=1/99;
 --------------------------------------------------
 product opt from reverse opt Mannitol attack on Q0
 --------------------------------------------------
 Symbolic Z-matrix:
 Charge =  0 Multiplicity = 1
 Si                    1.81912  -1.17102  -0.01263 
 O                     2.03039  -2.67605  -0.63889 
 H                     1.41045  -3.34277  -0.35896 
 O                     3.98338  -1.22881   0.5197 
 H                     4.35706  -1.9838    0.06135 
 O                     2.2559    0.08149  -0.82393 
 H                     4.0125   -0.48074  -0.10012 
 O                     1.43476  -1.19095   1.58144 
 H                     2.17991  -1.14072   2.1755 
 C                    -0.99909  -0.18848   0.12961 
 H                    -0.87284  -0.27244   1.20539 
 C                    -0.65979   1.2386   -0.36563 
 H                    -1.60225   1.76635  -0.50717 
 O                    -0.05625  -1.12042  -0.47747 
 H                    -0.01618  -0.82154  -1.40497 
 O                    -0.01329   1.16655  -1.61675 
 H                     0.93354   0.91555  -1.44582 
 C                    -2.38723  -0.65936  -0.28547 
 H                    -2.44582  -0.6507   -1.38479 
 C                     0.134     2.03904   0.6704 
 H                     0.97365   1.4403    1.04003 
 C                     0.7267    3.30751   0.06111 
 H                     1.04179   3.96799   0.87258 
 H                     1.62519   3.02902  -0.49934 
 C                    -2.68085  -2.06887   0.20052 
 H                    -1.98023  -2.77975  -0.24448 
 H                    -2.57423  -2.0954    1.29051 
 O                    -3.30926   0.24627   0.25996 
 H                    -4.17985  -0.14211   0.15328 
 O                    -0.78943   2.28571   1.715 
 H                    -0.33514   2.72217   2.43348 
 O                    -0.16723   4.0456   -0.73581 
 H                    -0.29902   3.54924  -1.54554 
 O                    -4.01309  -2.35415  -0.18803 
 H                    -4.31864  -3.13676   0.26567 
 
 Add virtual bond connecting atoms H7         and O6         Dist= 3.74D+00.

 GradGradGradGradGradGradGradGradGradGradGradGradGradGradGradGradGradGrad
 Berny optimization.
 Initialization pass.
                           ----------------------------
                           !    Initial Parameters    !
                           ! (Angstroms and Degrees)  !
 --------------------------                            --------------------------
 ! Name  Definition              Value          Derivative Info.                !
 --------------------------------------------------------------------------------
 ! R1    R(1,2)                  1.6438         estimate D2E/DX2                !
 ! R2    R(1,6)                  1.5549         estimate D2E/DX2                !
 ! R3    R(1,8)                  1.6399         estimate D2E/DX2                !
 ! R4    R(1,14)                 1.9328         estimate D2E/DX2                !
 ! R5    R(2,3)                  0.9525         estimate D2E/DX2                !
 ! R6    R(4,5)                  0.959          estimate D2E/DX2                !
 ! R7    R(4,7)                  0.9719         estimate D2E/DX2                !
 ! R8    R(6,7)                  1.9813         estimate D2E/DX2                !
 ! R9    R(8,9)                  0.9543         estimate D2E/DX2                !
 ! R10   R(10,11)                1.0864         estimate D2E/DX2                !
 ! R11   R(10,12)                1.5482         estimate D2E/DX2                !
 ! R12   R(10,14)                1.4581         estimate D2E/DX2                !
 ! R13   R(10,18)                1.5235         estimate D2E/DX2                !
 ! R14   R(12,13)                1.0894         estimate D2E/DX2                !
 ! R15   R(12,16)                1.4101         estimate D2E/DX2                !
 ! R16   R(12,20)                1.5311         estimate D2E/DX2                !
 ! R17   R(14,15)                0.9753         estimate D2E/DX2                !
 ! R18   R(16,17)                0.9943         estimate D2E/DX2                !
 ! R19   R(18,19)                1.1009         estimate D2E/DX2                !
 ! R20   R(18,25)                1.5196         estimate D2E/DX2                !
 ! R21   R(18,28)                1.4028         estimate D2E/DX2                !
 ! R22   R(20,21)                1.0955         estimate D2E/DX2                !
 ! R23   R(20,22)                1.5269         estimate D2E/DX2                !
 ! R24   R(20,30)                1.4159         estimate D2E/DX2                !
 ! R25   R(22,23)                1.0927         estimate D2E/DX2                !
 ! R26   R(22,24)                1.095          estimate D2E/DX2                !
 ! R27   R(22,32)                1.4068         estimate D2E/DX2                !
 ! R28   R(25,26)                1.0928         estimate D2E/DX2                !
 ! R29   R(25,27)                1.0955         estimate D2E/DX2                !
 ! R30   R(25,34)                1.4168         estimate D2E/DX2                !
 ! R31   R(28,29)                0.9592         estimate D2E/DX2                !
 ! R32   R(30,31)                0.9555         estimate D2E/DX2                !
 ! R33   R(32,33)                0.9588         estimate D2E/DX2                !
 ! R34   R(34,35)                0.9548         estimate D2E/DX2                !
 ! A1    A(2,1,6)              120.1746         estimate D2E/DX2                !
 ! A2    A(2,1,8)              112.9139         estimate D2E/DX2                !
 ! A3    A(2,1,14)              93.2702         estimate D2E/DX2                !
 ! A4    A(6,1,8)              125.6492         estimate D2E/DX2                !
 ! A5    A(6,1,14)              97.2378         estimate D2E/DX2                !
 ! A6    A(8,1,14)              90.3831         estimate D2E/DX2                !
 ! A7    A(1,2,3)              116.4409         estimate D2E/DX2                !
 ! A8    A(5,4,7)              106.8259         estimate D2E/DX2                !
 ! A9    A(1,6,7)               80.2038         estimate D2E/DX2                !
 ! A10   A(4,7,6)              115.1395         estimate D2E/DX2                !
 ! A11   A(1,8,9)              114.9276         estimate D2E/DX2                !
 ! A12   A(11,10,12)           111.255          estimate D2E/DX2                !
 ! A13   A(11,10,14)           106.7225         estimate D2E/DX2                !
 ! A14   A(11,10,18)           110.5963         estimate D2E/DX2                !
 ! A15   A(12,10,14)           108.3157         estimate D2E/DX2                !
 ! A16   A(12,10,18)           113.4186         estimate D2E/DX2                !
 ! A17   A(14,10,18)           106.153          estimate D2E/DX2                !
 ! A18   A(10,12,13)           107.3673         estimate D2E/DX2                !
 ! A19   A(10,12,16)           109.7057         estimate D2E/DX2                !
 ! A20   A(10,12,20)           112.276          estimate D2E/DX2                !
 ! A21   A(13,12,16)           107.8252         estimate D2E/DX2                !
 ! A22   A(13,12,20)           106.4498         estimate D2E/DX2                !
 ! A23   A(16,12,20)           112.9166         estimate D2E/DX2                !
 ! A24   A(1,14,10)            122.9577         estimate D2E/DX2                !
 ! A25   A(1,14,15)            101.3547         estimate D2E/DX2                !
 ! A26   A(10,14,15)           103.0992         estimate D2E/DX2                !
 ! A27   A(12,16,17)           107.274          estimate D2E/DX2                !
 ! A28   A(10,18,19)           108.5492         estimate D2E/DX2                !
 ! A29   A(10,18,25)           112.0627         estimate D2E/DX2                !
 ! A30   A(10,18,28)           107.0628         estimate D2E/DX2                !
 ! A31   A(19,18,25)           108.4436         estimate D2E/DX2                !
 ! A32   A(19,18,28)           110.377          estimate D2E/DX2                !
 ! A33   A(25,18,28)           110.3333         estimate D2E/DX2                !
 ! A34   A(12,20,21)           109.8737         estimate D2E/DX2                !
 ! A35   A(12,20,22)           111.4407         estimate D2E/DX2                !
 ! A36   A(12,20,30)           104.6066         estimate D2E/DX2                !
 ! A37   A(21,20,22)           106.9272         estimate D2E/DX2                !
 ! A38   A(21,20,30)           110.2526         estimate D2E/DX2                !
 ! A39   A(22,20,30)           113.7543         estimate D2E/DX2                !
 ! A40   A(20,22,23)           108.5259         estimate D2E/DX2                !
 ! A41   A(20,22,24)           108.1477         estimate D2E/DX2                !
 ! A42   A(20,22,32)           114.535          estimate D2E/DX2                !
 ! A43   A(23,22,24)           107.2908         estimate D2E/DX2                !
 ! A44   A(23,22,32)           106.6666         estimate D2E/DX2                !
 ! A45   A(24,22,32)           111.4022         estimate D2E/DX2                !
 ! A46   A(18,25,26)           110.4429         estimate D2E/DX2                !
 ! A47   A(18,25,27)           108.7756         estimate D2E/DX2                !
 ! A48   A(18,25,34)           106.3053         estimate D2E/DX2                !
 ! A49   A(26,25,27)           109.0872         estimate D2E/DX2                !
 ! A50   A(26,25,34)           111.113          estimate D2E/DX2                !
 ! A51   A(27,25,34)           111.0702         estimate D2E/DX2                !
 ! A52   A(18,28,29)           106.9724         estimate D2E/DX2                !
 ! A53   A(20,30,31)           108.9196         estimate D2E/DX2                !
 ! A54   A(22,32,33)           107.1053         estimate D2E/DX2                !
 ! A55   A(25,34,35)           109.6118         estimate D2E/DX2                !
 ! D1    D(6,1,2,3)           -150.8792         estimate D2E/DX2                !
 ! D2    D(8,1,2,3)             41.2443         estimate D2E/DX2                !
 ! D3    D(14,1,2,3)           -50.5564         estimate D2E/DX2                !
 ! D4    D(2,1,6,7)            -79.9228         estimate D2E/DX2                !
 ! D5    D(8,1,6,7)             86.3052         estimate D2E/DX2                !
 ! D6    D(14,1,6,7)          -177.9912         estimate D2E/DX2                !
 ! D7    D(2,1,8,9)             91.4344         estimate D2E/DX2                !
 ! D8    D(6,1,8,9)            -75.6549         estimate D2E/DX2                !
 ! D9    D(14,1,8,9)          -174.8526         estimate D2E/DX2                !
 ! D10   D(2,1,14,10)          161.8257         estimate D2E/DX2                !
 ! D11   D(2,1,14,15)          -84.2395         estimate D2E/DX2                !
 ! D12   D(6,1,14,10)          -77.1931         estimate D2E/DX2                !
 ! D13   D(6,1,14,15)           36.7417         estimate D2E/DX2                !
 ! D14   D(8,1,14,10)           48.8479         estimate D2E/DX2                !
 ! D15   D(8,1,14,15)          162.7827         estimate D2E/DX2                !
 ! D16   D(5,4,7,6)            108.2435         estimate D2E/DX2                !
 ! D17   D(1,6,7,4)             -4.8627         estimate D2E/DX2                !
 ! D18   D(11,10,12,13)       -100.2586         estimate D2E/DX2                !
 ! D19   D(11,10,12,16)        142.824          estimate D2E/DX2                !
 ! D20   D(11,10,12,20)         16.4047         estimate D2E/DX2                !
 ! D21   D(14,10,12,13)        142.7425         estimate D2E/DX2                !
 ! D22   D(14,10,12,16)         25.825          estimate D2E/DX2                !
 ! D23   D(14,10,12,20)       -100.5942         estimate D2E/DX2                !
 ! D24   D(18,10,12,13)         25.1791         estimate D2E/DX2                !
 ! D25   D(18,10,12,16)        -91.7383         estimate D2E/DX2                !
 ! D26   D(18,10,12,20)        141.8424         estimate D2E/DX2                !
 ! D27   D(11,10,14,1)         -50.6555         estimate D2E/DX2                !
 ! D28   D(11,10,14,15)       -163.7208         estimate D2E/DX2                !
 ! D29   D(12,10,14,1)          69.2242         estimate D2E/DX2                !
 ! D30   D(12,10,14,15)        -43.8411         estimate D2E/DX2                !
 ! D31   D(18,10,14,1)        -168.6528         estimate D2E/DX2                !
 ! D32   D(18,10,14,15)         78.2819         estimate D2E/DX2                !
 ! D33   D(11,10,18,19)       -174.7032         estimate D2E/DX2                !
 ! D34   D(11,10,18,25)        -54.9627         estimate D2E/DX2                !
 ! D35   D(11,10,18,28)         66.1416         estimate D2E/DX2                !
 ! D36   D(12,10,18,19)         59.5074         estimate D2E/DX2                !
 ! D37   D(12,10,18,25)        179.2479         estimate D2E/DX2                !
 ! D38   D(12,10,18,28)        -59.6478         estimate D2E/DX2                !
 ! D39   D(14,10,18,19)        -59.3078         estimate D2E/DX2                !
 ! D40   D(14,10,18,25)         60.4326         estimate D2E/DX2                !
 ! D41   D(14,10,18,28)       -178.463          estimate D2E/DX2                !
 ! D42   D(10,12,16,17)        -78.5079         estimate D2E/DX2                !
 ! D43   D(13,12,16,17)        164.8625         estimate D2E/DX2                !
 ! D44   D(20,12,16,17)         47.5476         estimate D2E/DX2                !
 ! D45   D(10,12,20,21)         48.855          estimate D2E/DX2                !
 ! D46   D(10,12,20,22)        167.1863         estimate D2E/DX2                !
 ! D47   D(10,12,20,30)        -69.4768         estimate D2E/DX2                !
 ! D48   D(13,12,20,21)        166.0673         estimate D2E/DX2                !
 ! D49   D(13,12,20,22)        -75.6014         estimate D2E/DX2                !
 ! D50   D(13,12,20,30)         47.7355         estimate D2E/DX2                !
 ! D51   D(16,12,20,21)        -75.8106         estimate D2E/DX2                !
 ! D52   D(16,12,20,22)         42.5207         estimate D2E/DX2                !
 ! D53   D(16,12,20,30)        165.8576         estimate D2E/DX2                !
 ! D54   D(10,18,25,26)        -62.3234         estimate D2E/DX2                !
 ! D55   D(10,18,25,27)         57.3672         estimate D2E/DX2                !
 ! D56   D(10,18,25,34)        177.0418         estimate D2E/DX2                !
 ! D57   D(19,18,25,26)         57.4788         estimate D2E/DX2                !
 ! D58   D(19,18,25,27)        177.1695         estimate D2E/DX2                !
 ! D59   D(19,18,25,34)        -63.156          estimate D2E/DX2                !
 ! D60   D(28,18,25,26)        178.4781         estimate D2E/DX2                !
 ! D61   D(28,18,25,27)        -61.8312         estimate D2E/DX2                !
 ! D62   D(28,18,25,34)         57.8433         estimate D2E/DX2                !
 ! D63   D(10,18,28,29)       -168.7423         estimate D2E/DX2                !
 ! D64   D(19,18,28,29)         73.2892         estimate D2E/DX2                !
 ! D65   D(25,18,28,29)        -46.5497         estimate D2E/DX2                !
 ! D66   D(12,20,22,23)        164.8472         estimate D2E/DX2                !
 ! D67   D(12,20,22,24)        -79.0674         estimate D2E/DX2                !
 ! D68   D(12,20,22,32)         45.8046         estimate D2E/DX2                !
 ! D69   D(21,20,22,23)        -75.0679         estimate D2E/DX2                !
 ! D70   D(21,20,22,24)         41.0174         estimate D2E/DX2                !
 ! D71   D(21,20,22,32)        165.8895         estimate D2E/DX2                !
 ! D72   D(30,20,22,23)         46.8881         estimate D2E/DX2                !
 ! D73   D(30,20,22,24)        162.9735         estimate D2E/DX2                !
 ! D74   D(30,20,22,32)        -72.1545         estimate D2E/DX2                !
 ! D75   D(12,20,30,31)        175.28           estimate D2E/DX2                !
 ! D76   D(21,20,30,31)         57.2063         estimate D2E/DX2                !
 ! D77   D(22,20,30,31)        -62.8899         estimate D2E/DX2                !
 ! D78   D(20,22,32,33)        -72.0086         estimate D2E/DX2                !
 ! D79   D(23,22,32,33)        167.9092         estimate D2E/DX2                !
 ! D80   D(24,22,32,33)         51.1287         estimate D2E/DX2                !
 ! D81   D(18,25,34,35)       -166.6961         estimate D2E/DX2                !
 ! D82   D(26,25,34,35)         73.1021         estimate D2E/DX2                !
 ! D83   D(27,25,34,35)        -48.5269         estimate D2E/DX2                !
 --------------------------------------------------------------------------------
 Trust Radius=3.00D-01 FncErr=1.00D-07 GrdErr=1.00D-06 EigMax=2.50D+02 EigMin=1.00D-04
 Number of steps in this run=    182 maximum allowed number of steps=    210.
 GradGradGradGradGradGradGradGradGradGradGradGradGradGradGradGradGradGrad

                          Input orientation:                          
 ---------------------------------------------------------------------
 Center     Atomic      Atomic             Coordinates (Angstroms)
 Number     Number       Type             X           Y           Z
 ---------------------------------------------------------------------
      1         14           0        1.819119   -1.171015   -0.012628
      2          8           0        2.030388   -2.676050   -0.638894
      3          1           0        1.410446   -3.342767   -0.358955
      4          8           0        3.983383   -1.228807    0.519703
      5          1           0        4.357061   -1.983803    0.061345
      6          8           0        2.255899    0.081491   -0.823927
      7          1           0        4.012495   -0.480737   -0.100117
      8          8           0        1.434763   -1.190947    1.581442
      9          1           0        2.179907   -1.140717    2.175499
     10          6           0       -0.999091   -0.188479    0.129605
     11          1           0       -0.872844   -0.272444    1.205393
     12          6           0       -0.659785    1.238599   -0.365633
     13          1           0       -1.602245    1.766345   -0.507168
     14          8           0       -0.056246   -1.120424   -0.477469
     15          1           0       -0.016182   -0.821540   -1.404973
     16          8           0       -0.013288    1.166547   -1.616750
     17          1           0        0.933537    0.915548   -1.445819
     18          6           0       -2.387232   -0.659362   -0.285467
     19          1           0       -2.445823   -0.650700   -1.384792
     20          6           0        0.134002    2.039041    0.670400
     21          1           0        0.973650    1.440301    1.040027
     22          6           0        0.726699    3.307508    0.061114
     23          1           0        1.041794    3.967986    0.872584
     24          1           0        1.625191    3.029018   -0.499340
     25          6           0       -2.680847   -2.068872    0.200523
     26          1           0       -1.980228   -2.779746   -0.244476
     27          1           0       -2.574229   -2.095399    1.290511
     28          8           0       -3.309256    0.246265    0.259960
     29          1           0       -4.179850   -0.142114    0.153283
     30          8           0       -0.789427    2.285714    1.715004
     31          1           0       -0.335143    2.722168    2.433481
     32          8           0       -0.167229    4.045596   -0.735814
     33          1           0       -0.299016    3.549236   -1.545537
     34          8           0       -4.013090   -2.354148   -0.188030
     35          1           0       -4.318644   -3.136757    0.265665
 ---------------------------------------------------------------------
                    Distance matrix (angstroms):
                    1          2          3          4          5
     1  Si   0.000000
     2  O    1.643768   0.000000
     3  H    2.236842   0.952473   0.000000
     4  O    2.229519   2.692777   3.443962   0.000000
     5  H    2.665942   2.526450   3.271999   0.959034   0.000000
     6  O    1.554913   2.772927   3.557602   2.550769   3.076366
     7  H    2.301095   3.006398   3.876709   0.971922   1.550485
     8  O    1.639874   2.736822   2.897596   2.761193   3.388088
     9  H    2.217879   3.209425   3.444496   2.449887   3.149673
    10  C    2.987962   3.994539   3.999261   5.104851   5.649444
    11  H    3.088312   4.196126   4.133701   4.996773   5.620454
    12  C    3.475028   4.757749   5.027406   5.332065   5.977870
    13  H    4.536341   5.740056   5.933068   6.420642   7.064003
    14  O    1.932778   2.607695   2.665340   4.162295   4.529130
    15  H    2.330040   2.866101   3.079936   4.457215   4.756700
    16  O    3.375666   4.460758   4.893156   5.125966   5.642753
    17  H    2.681797   3.841066   4.420629   4.214629   4.732684
    18  C    4.246130   4.869015   4.650637   6.446495   6.881854
    19  H    4.510354   4.969393   4.813562   6.730230   7.081505
    20  C    3.689255   5.248106   5.626077   5.051661   5.864167
    21  H    2.939706   4.569444   5.002567   4.056275   4.912207
    22  C    4.610422   6.163812   6.698517   5.603075   6.416970
    23  H    5.272302   6.885136   7.422917   5.981984   6.860969
    24  H    4.232585   5.721142   6.376948   4.972785   5.736363
    25  C    4.593612   4.823797   4.321401   6.724548   7.039798
    26  H    4.132409   4.031297   3.439007   6.209190   6.394395
    27  H    4.674844   5.026157   4.489354   6.659384   7.040318
    28  O    5.327590   6.153021   5.961526   7.444856   7.986555
    29  H    6.088825   6.753920   6.462041   8.243394   8.733792
    30  O    4.662424   6.173435   6.389096   6.046513   6.888374
    31  H    5.077516   6.646502   6.901320   6.158118   7.056201
    32  O    5.628642   7.072442   7.564323   6.828121   7.580126
    33  H    5.396024   6.708376   7.199302   6.740464   7.407810
    34  O    5.953590   6.068816   5.515553   8.106223   8.382051
    35  H    6.450870   6.429672   5.766720   8.522233   8.754365
                    6          7          8          9         10
     6  O    0.000000
     7  H    1.981320   0.000000
     8  O    2.842387   3.158598   0.000000
     9  H    3.239772   2.995393   0.954288   0.000000
    10  C    3.402509   5.025354   3.006064   3.898521   0.000000
    11  H    3.745990   5.061055   2.511993   3.318779   1.086420
    12  C    3.170196   4.985661   3.752456   4.492477   1.548206
    13  H    4.221889   6.061384   4.725599   5.472877   2.142571
    14  O    2.628811   4.135970   2.543068   3.469731   1.458087
    15  H    2.513052   4.248415   3.340715   4.212417   1.929198
    16  O    2.637257   4.606588   4.228837   4.951235   2.420260
    17  H    1.682570   3.638751   3.721943   4.346908   2.726882
    18  C    4.732596   6.404902   4.286674   5.210261   1.523467
    19  H    4.791332   6.587044   4.914200   5.857744   2.144780
    20  C    3.250763   4.688890   3.599278   4.069633   2.556991
    21  H    2.639101   3.771590   2.725660   3.066921   2.715419
    22  C    3.678170   5.017295   4.800922   5.135089   3.899355
    23  H    4.411014   5.437127   5.222212   5.393675   4.689715
    24  H    3.031677   4.263447   4.708930   4.984894   4.199371
    25  C    5.481334   6.885738   4.428988   5.328126   2.523729
    26  H    5.144629   6.420203   4.185740   5.084232   2.795931
    27  H    5.704370   6.922854   4.120035   4.929141   2.732235
    28  O    5.672117   7.366561   5.130069   5.976949   2.354327
    29  H    6.513356   8.203255   5.887577   6.747820   3.181185
    30  O    4.536384   5.831498   4.129411   4.557349   2.946028
    31  H    4.929237   5.964870   4.378471   4.616699   3.771013
    32  O    4.646874   6.193698   5.946212   6.393953   4.400947
    33  H    4.367330   6.076105   5.937451   6.479724   4.155324
    34  O    6.755511   8.241809   5.844927   6.738835   3.724944
    35  H    7.400604   8.751921   6.214430   7.061360   4.441879
                   11         12         13         14         15
    11  H    0.000000
    12  C    2.190152   0.000000
    13  H    2.760716   1.089394   0.000000
    14  O    2.053759   2.437572   3.274818   0.000000
    15  H    2.801676   2.395543   3.165249   0.975295   0.000000
    16  O    3.282381   1.410122   2.028722   2.555395   1.999337
    17  H    3.421003   1.951881   2.834627   2.462225   1.980179
    18  C    2.160032   2.567636   2.559182   2.383891   2.627066
    19  H    3.053915   2.792502   2.706281   2.598837   2.435723
    20  C    2.577386   1.531068   2.115557   3.366900   3.537323
    21  H    2.523961   2.164411   3.022475   3.149729   3.474725
    22  C    4.084601   2.526823   2.849931   4.528759   4.444133
    23  H    4.664531   3.446463   3.707004   5.377755   5.407970
    24  H    4.477270   2.905958   3.465653   4.477229   4.282648
    25  C    2.739670   3.917217   4.046369   2.871891   3.351700
    26  H    3.100804   4.231471   4.569335   2.551341   3.006460
    27  H    2.495019   4.186102   4.369150   3.227471   3.928353
    28  O    2.664396   2.897549   2.411020   3.604680   3.841425
    29  H    3.472781   3.816608   3.274517   4.284746   4.497323
    30  O    2.609757   2.332875   2.422492   4.116585   4.470704
    31  H    3.281010   3.184558   3.341641   4.828760   5.233864
    32  O    4.786611   2.873826   2.703060   5.173666   4.915242
    33  H    4.743641   2.619422   2.440352   4.796398   4.382173
    34  O    4.016997   4.917726   4.784609   4.154812   4.450293
    35  H    4.578309   5.738425   5.658313   4.773456   5.163569
                   16         17         18         19         20
    16  O    0.000000
    17  H    0.994332   0.000000
    18  C    3.277479   3.854123   0.000000
    19  H    3.045229   3.725175   1.100919   0.000000
    20  C    2.452345   2.525842   3.814667   4.256057   0.000000
    21  H    2.847359   2.540946   4.178642   4.684531   1.095501
    22  C    2.818958   2.834625   5.054972   5.274746   1.526934
    23  H    3.893333   3.834591   5.874662   6.212204   2.141447
    24  H    2.720665   2.416808   5.454304   5.558552   2.138221
    25  C    4.570152   4.967995   1.519577   2.140017   5.001910
    26  H    4.617923   4.856794   2.159482   2.459662   5.341130
    27  H    5.064669   5.371939   2.140298   3.043171   4.981229
    28  O    3.902866   4.621571   1.402776   2.062831   3.903656
    29  H    4.712308   5.460998   1.916645   2.373012   4.861498
    30  O    3.599377   3.851852   3.902350   4.579837   1.415898
    31  H    4.350623   4.463451   4.799843   5.514564   1.948131
    32  O    3.014742   3.393080   5.221863   5.260072   2.468692
    33  H    2.400816   2.909543   4.864229   4.719543   2.716352
    34  O    5.516788   6.061523   2.350576   2.605820   6.102080
    35  H    6.371656   6.850968   3.189292   3.523059   6.839499
                   21         22         23         24         25
    21  H    0.000000
    22  C    2.122668   0.000000
    23  H    2.534141   1.092703   0.000000
    24  H    2.306118   1.094967   1.761871   0.000000
    25  C    5.135602   6.366810   7.124140   6.709713   0.000000
    26  H    5.308874   6.668995   7.477455   6.841472   1.092810
    27  H    5.015113   6.449725   7.072123   6.862823   1.095511
    28  O    4.514146   5.069485   5.758312   5.715682   2.399644
    29  H    5.463416   5.998551   6.684002   6.646841   2.441647
    30  O    2.068516   2.465371   2.625468   3.359494   4.983326
    31  H    2.301703   2.664255   2.425782   3.540975   5.782948
    32  O    3.353025   1.406761   2.013630   2.074155   6.676954
    33  H    3.571054   1.921419   2.796504   2.251161   6.347045
    34  O    6.385416   7.387965   8.163708   7.801641   1.416766
    35  H    7.039707   8.186933   8.920763   8.598325   1.956272
                   26         27         28         29         30
    26  H    0.000000
    27  H    1.782513   0.000000
    28  O    3.343279   2.661896   0.000000
    29  H    3.457405   2.772477   0.959246   0.000000
    30  O    5.560257   4.749722   3.553314   4.452897   0.000000
    31  H    6.336309   5.434044   4.438427   5.308972   0.955550
    32  O    7.079101   6.900106   5.029793   5.867583   3.080718
    33  H    6.676470   6.714288   4.819853   5.618979   3.531022
    34  O    2.077703   2.079268   2.730975   2.244415   5.961699
    35  H    2.419895   2.275460   3.530401   2.999963   6.630170
                   31         32         33         34         35
    31  H    0.000000
    32  O    3.438617   0.000000
    33  H    4.064226   0.958850   0.000000
    34  O    6.794748   7.486484   7.105428   0.000000
    35  H    7.409096   8.356040   8.008768   0.954819   0.000000
 Stoichiometry    C6H18O10Si
 Framework group  C1[X(C6H18O10Si)]
 Deg. of freedom    99
 Full point group                 C1      NOp   1
 Largest Abelian subgroup         C1      NOp   1
 Largest concise Abelian subgroup C1      NOp   1
                         Standard orientation:                         
 ---------------------------------------------------------------------
 Center     Atomic      Atomic             Coordinates (Angstroms)
 Number     Number       Type             X           Y           Z
 ---------------------------------------------------------------------
      1         14           0        1.867398   -1.104435   -0.032695
      2          8           0        2.130211   -2.599462   -0.663406
      3          1           0        1.536816   -3.289062   -0.381380
      4          8           0        4.035362   -1.083667    0.487165
      5          1           0        4.433879   -1.823520    0.025054
      6          8           0        2.253162    0.164861   -0.843762
      7          1           0        4.033383   -0.333825   -0.131193
      8          8           0        1.493247   -1.141591    1.563493
      9          1           0        2.239460   -1.065162    2.153400
     10          6           0       -0.984147   -0.226441    0.127722
     11          1           0       -0.848689   -0.307806    1.202589
     12          6           0       -0.700379    1.213109   -0.366357
     13          1           0       -1.662398    1.706128   -0.501376
     14          8           0       -0.011213   -1.121911   -0.486729
     15          1           0        0.012483   -0.819948   -1.413798
     16          8           0       -0.058908    1.167311   -1.621291
     17          1           0        0.897473    0.950955   -1.456303
     18          6           0       -2.356420   -0.747224   -0.280447
     19          1           0       -2.421638   -0.738577   -1.379399
     20          6           0        0.069427    2.040168    0.666862
     21          1           0        0.932631    1.471979    1.030403
     22          6           0        0.611580    3.330751    0.056951
     23          1           0        0.906872    4.000782    0.868037
     24          1           0        1.516448    3.086572   -0.509216
     25          6           0       -2.595228   -2.167519    0.204161
     26          1           0       -1.871540   -2.851289   -0.246359
     27          1           0       -2.481413   -2.192235    1.293464
     28          8           0       -3.307936    0.122832    0.272182
     29          1           0       -4.164272   -0.297079    0.169630
     30          8           0       -0.856395    2.250691    1.717244
     31          1           0       -0.414315    2.702148    2.434061
     32          8           0       -0.313455    4.037032   -0.733272
     33          1           0       -0.431587    3.537743   -1.543301
     34          8           0       -3.918309   -2.500818   -0.177407
     35          1           0       -4.192272   -3.295014    0.276330
 ---------------------------------------------------------------------
 Rotational constants (GHZ):           0.4141296           0.3477260           0.2219154
 Standard basis: def2TZVPP (5D, 7F)
 There are   894 symmetry adapted cartesian basis functions of A   symmetry.
 There are   790 symmetry adapted basis functions of A   symmetry.
   790 basis functions,  1191 primitive gaussians,   894 cartesian basis functions
    74 alpha electrons       74 beta electrons
       nuclear repulsion energy      1673.5680777432 Hartrees.
 NAtoms=   35 NActive=   35 NUniq=   35 SFac= 1.00D+00 NAtFMM=   60 NAOKFM=F Big=F
 Integral buffers will be    131072 words long.
 Raffenetti 2 integral format.
 Two-electron integral symmetry is turned on.
 Nuclear repulsion after empirical dispersion term =     1673.5404675662 Hartrees.
 One-electron integrals computed using PRISM.
   1 Symmetry operations used in ECPInt.
 ECPInt:  NShTT=   44551 NPrTT=  121227 LenC2=   39232 LenP2D=   78753.
 LDataN:  DoStor=T MaxTD1= 6 Len=  172
 NBasis=   790 RedAO= T EigKep=  3.78D-05  NBF=   790
 NBsUse=   790 1.00D-06 EigRej= -1.00D+00 NBFU=   790
 ExpMin= 7.01D-02 ExpMax= 4.48D+04 ExpMxC= 1.53D+03 IAcc=3 IRadAn=         5 AccDes= 0.00D+00
 Harris functional with IExCor= 4639 and IRadAn=       5 diagonalized for initial guess.
 HarFok:  IExCor= 4639 AccDes= 0.00D+00 IRadAn=         5 IDoV= 1 UseB2=F ITyADJ=14
 ICtDFT=  3500011 ScaDFX=  1.000000  1.000000  1.000000  1.000000
 FoFCou: FMM=F IPFlag=           0 FMFlag=      100000 FMFlg1=           0
         NFxFlg=           0 DoJE=T BraDBF=F KetDBF=T FulRan=T
         wScrn=  0.000000 ICntrl=       500 IOpCl=  0 I1Cent=   200000004 NGrid=           0
         NMat0=    1 NMatS0=      1 NMatT0=    0 NMatD0=    1 NMtDS0=    0 NMtDT0=    0
 Petite list used in FoFCou.
 Requested convergence on RMS density matrix=1.00D-08 within 128 cycles.
 Requested convergence on MAX density matrix=1.00D-06.
 Requested convergence on             energy=1.00D-06.
 No special actions if energy rises.
 Integral accuracy reduced to 1.0D-05 until final iterations.
 Initial convergence to 1.0D-05 achieved.  Increase integral accuracy.
 SCF Done:  E(RwB97XD) =  -1281.49603559     A.U. after   14 cycles
            NFock= 14  Conv=0.65D-08     -V/T= 2.0037

 **********************************************************************

            Population analysis using the SCF Density.

 **********************************************************************

 Orbital symmetries:
       Occupied  (A) (A) (A) (A) (A) (A) (A) (A) (A) (A) (A) (A)
                 (A) (A) (A) (A) (A) (A) (A) (A) (A) (A) (A) (A)
                 (A) (A) (A) (A) (A) (A) (A) (A) (A) (A) (A) (A)
                 (A) (A) (A) (A) (A) (A) (A) (A) (A) (A) (A) (A)
                 (A) (A) (A) (A) (A) (A) (A) (A) (A) (A) (A) (A)
                 (A) (A) (A) (A) (A) (A) (A) (A) (A) (A) (A) (A)
                 (A) (A)
       Virtual   (A) (A) (A) (A) (A) (A) (A) (A) (A) (A) (A) (A)
                 (A) (A) (A) (A) (A) (A) (A) (A) (A) (A) (A) (A)
                 (A) (A) (A) (A) (A) (A) (A) (A) (A) (A) (A) (A)
                 (A) (A) (A) (A) (A) (A) (A) (A) (A) (A) (A) (A)
                 (A) (A) (A) (A) (A) (A) (A) (A) (A) (A) (A) (A)
                 (A) (A) (A) (A) (A) (A) (A) (A) (A) (A) (A) (A)
                 (A) (A) (A) (A) (A) (A) (A) (A) (A) (A) (A) (A)
                 (A) (A) (A) (A) (A) (A) (A) (A) (A) (A) (A) (A)
                 (A) (A) (A) (A) (A) (A) (A) (A) (A) (A) (A) (A)
                 (A) (A) (A) (A) (A) (A) (A) (A) (A) (A) (A) (A)
                 (A) (A) (A) (A) (A) (A) (A) (A) (A) (A) (A) (A)
                 (A) (A) (A) (A) (A) (A) (A) (A) (A) (A) (A) (A)
                 (A) (A) (A) (A) (A) (A) (A) (A) (A) (A) (A) (A)
                 (A) (A) (A) (A) (A) (A) (A) (A) (A) (A) (A) (A)
                 (A) (A) (A) (A) (A) (A) (A) (A) (A) (A) (A) (A)
                 (A) (A) (A) (A) (A) (A) (A) (A) (A) (A) (A) (A)
                 (A) (A) (A) (A) (A) (A) (A) (A) (A) (A) (A) (A)
                 (A) (A) (A) (A) (A) (A) (A) (A) (A) (A) (A) (A)
                 (A) (A) (A) (A) (A) (A) (A) (A) (A) (A) (A) (A)
                 (A) (A) (A) (A) (A) (A) (A) (A) (A) (A) (A) (A)
                 (A) (A) (A) (A) (A) (A) (A) (A) (A) (A) (A) (A)
                 (A) (A) (A) (A) (A) (A) (A) (A) (A) (A) (A) (A)
                 (A) (A) (A) (A) (A) (A) (A) (A) (A) (A) (A) (A)
                 (A) (A) (A) (A) (A) (A) (A) (A) (A) (A) (A) (A)
                 (A) (A) (A) (A) (A) (A) (A) (A) (A) (A) (A) (A)
                 (A) (A) (A) (A) (A) (A) (A) (A) (A) (A) (A) (A)
                 (A) (A) (A) (A) (A) (A) (A) (A) (A) (A) (A) (A)
                 (A) (A) (A) (A) (A) (A) (A) (A) (A) (A) (A) (A)
                 (A) (A) (A) (A) (A) (A) (A) (A) (A) (A) (A) (A)
                 (A) (A) (A) (A) (A) (A) (A) (A) (A) (A) (A) (A)
                 (A) (A) (A) (A) (A) (A) (A) (A) (A) (A) (A) (A)
                 (A) (A) (A) (A) (A) (A) (A) (A) (A) (A) (A) (A)
                 (A) (A) (A) (A) (A) (A) (A) (A) (A) (A) (A) (A)
                 (A) (A) (A) (A) (A) (A) (A) (A) (A) (A) (A) (A)
                 (A) (A) (A) (A) (A) (A) (A) (A) (A) (A) (A) (A)
                 (A) (A) (A) (A) (A) (A) (A) (A) (A) (A) (A) (A)
                 (A) (A) (A) (A) (A) (A) (A) (A) (A) (A) (A) (A)
                 (A) (A) (A) (A) (A) (A) (A) (A) (A) (A) (A) (A)
                 (A) (A) (A) (A) (A) (A) (A) (A) (A) (A) (A) (A)
                 (A) (A) (A) (A) (A) (A) (A) (A) (A) (A) (A) (A)
                 (A) (A) (A) (A) (A) (A) (A) (A) (A) (A) (A) (A)
                 (A) (A) (A) (A) (A) (A) (A) (A) (A) (A) (A) (A)
                 (A) (A) (A) (A) (A) (A) (A) (A) (A) (A) (A) (A)
                 (A) (A) (A) (A) (A) (A) (A) (A) (A) (A) (A) (A)
                 (A) (A) (A) (A) (A) (A) (A) (A) (A) (A) (A) (A)
                 (A) (A) (A) (A) (A) (A) (A) (A) (A) (A) (A) (A)
                 (A) (A) (A) (A) (A) (A) (A) (A) (A) (A) (A) (A)
                 (A) (A) (A) (A) (A) (A) (A) (A) (A) (A) (A) (A)
                 (A) (A) (A) (A) (A) (A) (A) (A) (A) (A) (A) (A)
                 (A) (A) (A) (A) (A) (A) (A) (A) (A) (A) (A) (A)
                 (A) (A) (A) (A) (A) (A) (A) (A) (A) (A) (A) (A)
                 (A) (A) (A) (A) (A) (A) (A) (A) (A) (A) (A) (A)
                 (A) (A) (A) (A) (A) (A) (A) (A) (A) (A) (A) (A)
                 (A) (A) (A) (A) (A) (A) (A) (A) (A) (A) (A) (A)
                 (A) (A) (A) (A) (A) (A) (A) (A) (A) (A) (A) (A)
                 (A) (A) (A) (A) (A) (A) (A) (A) (A) (A) (A) (A)
                 (A) (A) (A) (A) (A) (A) (A) (A) (A) (A) (A) (A)
                 (A) (A) (A) (A) (A) (A) (A) (A) (A) (A) (A) (A)
                 (A) (A) (A) (A) (A) (A) (A) (A) (A) (A) (A) (A)
                 (A) (A) (A) (A) (A) (A) (A) (A)
 The electronic state is 1-A.
 Alpha  occ. eigenvalues --  -66.30755 -19.33349 -19.29237 -19.27269 -19.25655
 Alpha  occ. eigenvalues --  -19.25531 -19.25499 -19.24430 -19.24405 -19.23044
 Alpha  occ. eigenvalues --  -19.16867 -10.36081 -10.34972 -10.34497 -10.33497
 Alpha  occ. eigenvalues --  -10.32489 -10.31446  -5.42377  -3.77237  -3.76808
 Alpha  occ. eigenvalues --   -3.76527  -1.21177  -1.16238  -1.15921  -1.13471
 Alpha  occ. eigenvalues --   -1.13112  -1.12286  -1.11630  -1.10653  -1.10619
 Alpha  occ. eigenvalues --   -0.99581  -0.89678  -0.85194  -0.81307  -0.75443
 Alpha  occ. eigenvalues --   -0.72275  -0.68915  -0.67891  -0.66583  -0.64818
 Alpha  occ. eigenvalues --   -0.63810  -0.63202  -0.61760  -0.60951  -0.58132
 Alpha  occ. eigenvalues --   -0.57877  -0.57440  -0.56259  -0.54954  -0.54716
 Alpha  occ. eigenvalues --   -0.53507  -0.52293  -0.50623  -0.49748  -0.49490
 Alpha  occ. eigenvalues --   -0.48669  -0.47746  -0.46398  -0.45953  -0.45564
 Alpha  occ. eigenvalues --   -0.44559  -0.43911  -0.42804  -0.42420  -0.41444
 Alpha  occ. eigenvalues --   -0.40935  -0.40200  -0.38774  -0.37768  -0.37014
 Alpha  occ. eigenvalues --   -0.36802  -0.35457  -0.34720  -0.33159
 Alpha virt. eigenvalues --    0.07160   0.09016   0.10586   0.11770   0.12537
 Alpha virt. eigenvalues --    0.13181   0.14224   0.14565   0.15482   0.16859
 Alpha virt. eigenvalues --    0.17650   0.18460   0.19075   0.19573   0.20340
 Alpha virt. eigenvalues --    0.20406   0.21271   0.21928   0.22227   0.23237
 Alpha virt. eigenvalues --    0.23741   0.24332   0.24898   0.25483   0.26525
 Alpha virt. eigenvalues --    0.26745   0.27567   0.28689   0.29565   0.30217
 Alpha virt. eigenvalues --    0.31119   0.31844   0.32953   0.33784   0.34487
 Alpha virt. eigenvalues --    0.34963   0.35917   0.36459   0.37012   0.37562
 Alpha virt. eigenvalues --    0.38130   0.39274   0.39799   0.40402   0.40627
 Alpha virt. eigenvalues --    0.41264   0.41870   0.42182   0.42891   0.43188
 Alpha virt. eigenvalues --    0.43855   0.44192   0.44765   0.45198   0.46125
 Alpha virt. eigenvalues --    0.46610   0.47062   0.48116   0.48604   0.48928
 Alpha virt. eigenvalues --    0.49294   0.49923   0.50246   0.50661   0.51410
 Alpha virt. eigenvalues --    0.51594   0.51934   0.52846   0.53562   0.53967
 Alpha virt. eigenvalues --    0.54786   0.55368   0.55854   0.56299   0.56812
 Alpha virt. eigenvalues --    0.57570   0.57839   0.58606   0.59024   0.59776
 Alpha virt. eigenvalues --    0.60392   0.60552   0.61277   0.61558   0.62461
 Alpha virt. eigenvalues --    0.63214   0.63954   0.64884   0.65212   0.65691
 Alpha virt. eigenvalues --    0.66807   0.66942   0.66955   0.68097   0.68471
 Alpha virt. eigenvalues --    0.69100   0.69300   0.71340   0.71721   0.72829
 Alpha virt. eigenvalues --    0.74110   0.74838   0.75197   0.76294   0.76606
 Alpha virt. eigenvalues --    0.77047   0.78119   0.79192   0.79363   0.80934
 Alpha virt. eigenvalues --    0.81101   0.82421   0.82730   0.83692   0.85482
 Alpha virt. eigenvalues --    0.85799   0.86760   0.87523   0.88784   0.89121
 Alpha virt. eigenvalues --    0.89235   0.91399   0.91746   0.92215   0.93154
 Alpha virt. eigenvalues --    0.94767   0.94914   0.95151   0.95673   0.96490
 Alpha virt. eigenvalues --    0.97989   0.98118   0.99596   0.99677   1.00835
 Alpha virt. eigenvalues --    1.01432   1.02617   1.03462   1.04158   1.05873
 Alpha virt. eigenvalues --    1.06650   1.07011   1.08096   1.08382   1.08565
 Alpha virt. eigenvalues --    1.10065   1.10588   1.11267   1.11878   1.12096
 Alpha virt. eigenvalues --    1.14278   1.14303   1.14642   1.15609   1.15968
 Alpha virt. eigenvalues --    1.16829   1.18828   1.19656   1.20375   1.20807
 Alpha virt. eigenvalues --    1.21281   1.21400   1.21750   1.23391   1.24796
 Alpha virt. eigenvalues --    1.25292   1.27118   1.27380   1.28202   1.28377
 Alpha virt. eigenvalues --    1.29524   1.29886   1.30532   1.30796   1.32253
 Alpha virt. eigenvalues --    1.33459   1.34265   1.34586   1.34972   1.35705
 Alpha virt. eigenvalues --    1.36339   1.37170   1.37768   1.39065   1.39907
 Alpha virt. eigenvalues --    1.40362   1.41153   1.41553   1.42855   1.43303
 Alpha virt. eigenvalues --    1.43942   1.44926   1.46101   1.46906   1.47945
 Alpha virt. eigenvalues --    1.48852   1.49482   1.50800   1.50911   1.52207
 Alpha virt. eigenvalues --    1.52357   1.53422   1.54277   1.54800   1.55921
 Alpha virt. eigenvalues --    1.56469   1.57755   1.59561   1.59832   1.60749
 Alpha virt. eigenvalues --    1.61840   1.63125   1.64494   1.65182   1.65925
 Alpha virt. eigenvalues --    1.67766   1.68770   1.69993   1.71480   1.72510
 Alpha virt. eigenvalues --    1.73448   1.76524   1.77652   1.79992   1.80211
 Alpha virt. eigenvalues --    1.80546   1.83169   1.85137   1.85616   1.86389
 Alpha virt. eigenvalues --    1.88660   1.89001   1.90149   1.91033   1.92590
 Alpha virt. eigenvalues --    1.93003   1.94530   1.95460   1.96507   1.97059
 Alpha virt. eigenvalues --    1.98074   1.99532   2.00024   2.01333   2.01631
 Alpha virt. eigenvalues --    2.02213   2.02883   2.04181   2.04368   2.05826
 Alpha virt. eigenvalues --    2.06369   2.06863   2.08397   2.08785   2.09782
 Alpha virt. eigenvalues --    2.10544   2.11127   2.12007   2.12613   2.13399
 Alpha virt. eigenvalues --    2.13768   2.15154   2.15667   2.16910   2.18373
 Alpha virt. eigenvalues --    2.19235   2.20552   2.21512   2.23200   2.24595
 Alpha virt. eigenvalues --    2.25239   2.26291   2.27273   2.28388   2.29082
 Alpha virt. eigenvalues --    2.30310   2.31217   2.32894   2.34561   2.35142
 Alpha virt. eigenvalues --    2.36460   2.37206   2.39450   2.40124   2.43137
 Alpha virt. eigenvalues --    2.43630   2.45216   2.46732   2.48404   2.49142
 Alpha virt. eigenvalues --    2.51088   2.52376   2.53909   2.55295   2.57373
 Alpha virt. eigenvalues --    2.60321   2.60766   2.62315   2.63576   2.64303
 Alpha virt. eigenvalues --    2.65954   2.67526   2.67855   2.69479   2.71915
 Alpha virt. eigenvalues --    2.73475   2.74090   2.75393   2.75920   2.77582
 Alpha virt. eigenvalues --    2.77749   2.78828   2.80536   2.82763   2.83981
 Alpha virt. eigenvalues --    2.84828   2.85703   2.86902   2.87590   2.88219
 Alpha virt. eigenvalues --    2.89548   2.92298   2.92914   2.94302   2.95288
 Alpha virt. eigenvalues --    2.95954   2.97673   2.99015   2.99305   3.00356
 Alpha virt. eigenvalues --    3.01759   3.02900   3.03429   3.03999   3.06172
 Alpha virt. eigenvalues --    3.07645   3.08154   3.09037   3.09451   3.10667
 Alpha virt. eigenvalues --    3.11571   3.12886   3.13681   3.14739   3.15907
 Alpha virt. eigenvalues --    3.16151   3.16744   3.17624   3.18755   3.19261
 Alpha virt. eigenvalues --    3.19398   3.20759   3.22569   3.22723   3.24299
 Alpha virt. eigenvalues --    3.25003   3.25686   3.26485   3.27251   3.28292
 Alpha virt. eigenvalues --    3.29453   3.29882   3.30554   3.31088   3.31549
 Alpha virt. eigenvalues --    3.33663   3.34050   3.34124   3.35833   3.35958
 Alpha virt. eigenvalues --    3.37262   3.37576   3.38193   3.38594   3.39337
 Alpha virt. eigenvalues --    3.40472   3.41506   3.42097   3.42940   3.43066
 Alpha virt. eigenvalues --    3.44158   3.44347   3.44646   3.45733   3.46325
 Alpha virt. eigenvalues --    3.47447   3.47957   3.48240   3.48771   3.48997
 Alpha virt. eigenvalues --    3.49866   3.50773   3.52084   3.52558   3.53596
 Alpha virt. eigenvalues --    3.54487   3.54840   3.56027   3.57640   3.58075
 Alpha virt. eigenvalues --    3.58826   3.60239   3.60886   3.61599   3.62519
 Alpha virt. eigenvalues --    3.63729   3.64471   3.65402   3.66133   3.66919
 Alpha virt. eigenvalues --    3.67596   3.70095   3.71015   3.71326   3.71511
 Alpha virt. eigenvalues --    3.74181   3.74424   3.74908   3.77588   3.77768
 Alpha virt. eigenvalues --    3.78973   3.79840   3.80685   3.81538   3.82890
 Alpha virt. eigenvalues --    3.83820   3.84763   3.85616   3.86524   3.87803
 Alpha virt. eigenvalues --    3.88161   3.89873   3.90379   3.91107   3.92143
 Alpha virt. eigenvalues --    3.93476   3.94021   3.95066   3.96067   3.96649
 Alpha virt. eigenvalues --    3.97791   3.98912   4.00003   4.01296   4.01976
 Alpha virt. eigenvalues --    4.02519   4.03056   4.03396   4.04216   4.04812
 Alpha virt. eigenvalues --    4.05809   4.06178   4.07646   4.08656   4.09280
 Alpha virt. eigenvalues --    4.10297   4.11129   4.12130   4.13610   4.14322
 Alpha virt. eigenvalues --    4.14775   4.15647   4.16027   4.16412   4.16889
 Alpha virt. eigenvalues --    4.17241   4.18721   4.19274   4.19987   4.21123
 Alpha virt. eigenvalues --    4.21457   4.23040   4.23748   4.24367   4.24758
 Alpha virt. eigenvalues --    4.25886   4.27048   4.27749   4.28871   4.29915
 Alpha virt. eigenvalues --    4.31465   4.32488   4.33433   4.34234   4.34753
 Alpha virt. eigenvalues --    4.35380   4.36650   4.37378   4.38044   4.39516
 Alpha virt. eigenvalues --    4.40455   4.40822   4.42493   4.43059   4.44038
 Alpha virt. eigenvalues --    4.44876   4.46785   4.48008   4.49729   4.50994
 Alpha virt. eigenvalues --    4.51618   4.53606   4.55186   4.56748   4.58736
 Alpha virt. eigenvalues --    4.59531   4.60828   4.61859   4.63208   4.64484
 Alpha virt. eigenvalues --    4.64693   4.67890   4.68511   4.69135   4.69962
 Alpha virt. eigenvalues --    4.71641   4.72248   4.74024   4.74950   4.76344
 Alpha virt. eigenvalues --    4.77989   4.79429   4.79904   4.81914   4.85295
 Alpha virt. eigenvalues --    4.85664   4.88886   4.89360   4.90347   4.91153
 Alpha virt. eigenvalues --    4.91530   4.92420   4.93405   4.94063   4.95519
 Alpha virt. eigenvalues --    4.96310   4.98437   5.00233   5.01085   5.03277
 Alpha virt. eigenvalues --    5.04243   5.06854   5.07149   5.08116   5.09207
 Alpha virt. eigenvalues --    5.10223   5.11730   5.12981   5.13932   5.13997
 Alpha virt. eigenvalues --    5.15034   5.16532   5.17353   5.18198   5.19096
 Alpha virt. eigenvalues --    5.23818   5.24918   5.25396   5.27270   5.28662
 Alpha virt. eigenvalues --    5.31146   5.33081   5.34483   5.35721   5.36657
 Alpha virt. eigenvalues --    5.37862   5.38301   5.40329   5.41496   5.43483
 Alpha virt. eigenvalues --    5.44808   5.45671   5.46139   5.48025   5.49491
 Alpha virt. eigenvalues --    5.51277   5.55406   5.56238   5.57792   5.59954
 Alpha virt. eigenvalues --    5.60885   5.62411   5.63383   5.64034   5.64681
 Alpha virt. eigenvalues --    5.66572   5.67897   5.68352   5.70255   5.70824
 Alpha virt. eigenvalues --    5.73580   5.74196   5.75752   5.76315   5.78641
 Alpha virt. eigenvalues --    5.80679   5.81957   5.83384   5.83804   5.85323
 Alpha virt. eigenvalues --    5.86113   5.88158   5.89747   5.91862   5.95968
 Alpha virt. eigenvalues --    6.00772   6.02668   6.06564   6.08220   6.11072
 Alpha virt. eigenvalues --    6.13894   6.15818   6.16604   6.19257   6.23070
 Alpha virt. eigenvalues --    6.24876   6.27938   6.46812   6.49919   6.51706
 Alpha virt. eigenvalues --    6.53755   6.54968   6.55966   6.59980   6.60396
 Alpha virt. eigenvalues --    6.60988   6.61949   6.62566   6.63442   6.64790
 Alpha virt. eigenvalues --    6.66039   6.66453   6.69040   6.69458   6.71732
 Alpha virt. eigenvalues --    6.72440   6.73247   6.74614   6.75972   6.76586
 Alpha virt. eigenvalues --    6.77016   6.78464   6.78691   6.79749   6.80585
 Alpha virt. eigenvalues --    6.81117   6.82250   6.82939   6.83501   6.85072
 Alpha virt. eigenvalues --    6.86146   6.86730   6.87164   6.87455   6.87742
 Alpha virt. eigenvalues --    6.88812   6.89731   6.91141   6.92543   6.93533
 Alpha virt. eigenvalues --    6.96804   6.97873   7.02355   7.03094   7.04251
 Alpha virt. eigenvalues --    7.05201   7.06497   7.08862   7.11373   7.12434
 Alpha virt. eigenvalues --    7.15069   7.16672   7.17139   7.19251   7.20617
 Alpha virt. eigenvalues --    7.21920   7.26563   7.27265   7.36127   7.36970
 Alpha virt. eigenvalues --    7.40088   7.44865   7.47132   7.47815   7.49759
 Alpha virt. eigenvalues --    7.49974   7.51303   7.52796   7.54111   7.58502
 Alpha virt. eigenvalues --    7.60261   7.62831   7.64262   7.66286   7.70353
 Alpha virt. eigenvalues --    7.72553   7.79738   7.83966   7.87129  12.94195
 Alpha virt. eigenvalues --   23.17340  23.25902  23.33063  23.35001  23.46753
 Alpha virt. eigenvalues --   23.47170  43.84645  43.96113  43.98437  44.12572
 Alpha virt. eigenvalues --   44.15426  44.18813  44.32143  44.37099  44.42995
 Alpha virt. eigenvalues --   44.47615
          Condensed to atoms (all electrons):
               1          2          3          4          5          6
     1  Si  11.514774   0.438474  -0.016834   0.121364  -0.005558   0.586438
     2  O    0.438474   7.730356   0.330323  -0.030727   0.005296  -0.018726
     3  H   -0.016834   0.330323   0.504000   0.001249  -0.000333   0.000942
     4  O    0.121364  -0.030727   0.001249   7.667629   0.321765  -0.057988
     5  H   -0.005558   0.005296  -0.000333   0.321765   0.485184   0.002129
     6  O    0.586438  -0.018726   0.000942  -0.057988   0.002129   8.154175
     7  H   -0.009256   0.000895  -0.000006   0.306580  -0.012861   0.037427
     8  O    0.408016  -0.028531  -0.001659  -0.020150   0.000825  -0.024088
     9  H   -0.020763   0.000222   0.000018   0.002818  -0.000375  -0.000526
    10  C   -0.021585   0.000968  -0.000201  -0.000129  -0.000021  -0.008231
    11  H   -0.006625   0.000138  -0.000042   0.000031   0.000000  -0.000017
    12  C    0.033872  -0.000473  -0.000055  -0.000002   0.000029   0.006358
    13  H    0.000139  -0.000001   0.000000  -0.000001   0.000000  -0.000205
    14  O    0.226688  -0.021581   0.000784   0.000464   0.000016  -0.025252
    15  H   -0.012542   0.001735   0.000026   0.000050  -0.000032   0.002903
    16  O   -0.006990   0.000007   0.000035  -0.000043   0.000006  -0.043432
    17  H   -0.005600  -0.000378  -0.000036   0.000200  -0.000057   0.078316
    18  C   -0.002244  -0.000270  -0.000043  -0.000007   0.000002   0.000343
    19  H   -0.000731  -0.000016  -0.000008  -0.000000  -0.000000   0.000002
    20  C   -0.019213   0.000096  -0.000005   0.000110  -0.000036   0.010304
    21  H    0.001914  -0.000143  -0.000015  -0.000023   0.000027  -0.001041
    22  C    0.001225  -0.000008   0.000001   0.000015   0.000004  -0.013421
    23  H    0.000189  -0.000000  -0.000000  -0.000000   0.000000   0.000058
    24  H   -0.000921   0.000008  -0.000001  -0.000029  -0.000002   0.009591
    25  C    0.001070  -0.000508  -0.000098  -0.000000  -0.000000  -0.000045
    26  H    0.000437   0.000624   0.000648   0.000002  -0.000000   0.000005
    27  H   -0.000158  -0.000004  -0.000020  -0.000000  -0.000000   0.000004
    28  O    0.000141   0.000000   0.000001   0.000000   0.000000   0.000002
    29  H   -0.000004  -0.000000   0.000000   0.000000   0.000000  -0.000000
    30  O    0.000583   0.000000  -0.000000   0.000000   0.000000   0.000216
    31  H    0.000012   0.000000   0.000000  -0.000000  -0.000000   0.000017
    32  O   -0.000015  -0.000000  -0.000000  -0.000000  -0.000000   0.000036
    33  H    0.000017   0.000000  -0.000000   0.000000  -0.000000   0.000188
    34  O    0.000007   0.000000  -0.000003   0.000000  -0.000000   0.000000
    35  H   -0.000002   0.000000  -0.000000   0.000000  -0.000000  -0.000000
               7          8          9         10         11         12
     1  Si  -0.009256   0.408016  -0.020763  -0.021585  -0.006625   0.033872
     2  O    0.000895  -0.028531   0.000222   0.000968   0.000138  -0.000473
     3  H   -0.000006  -0.001659   0.000018  -0.000201  -0.000042  -0.000055
     4  O    0.306580  -0.020150   0.002818  -0.000129   0.000031  -0.000002
     5  H   -0.012861   0.000825  -0.000375  -0.000021   0.000000   0.000029
     6  O    0.037427  -0.024088  -0.000526  -0.008231  -0.000017   0.006358
     7  H    0.443036   0.000816  -0.000269   0.000150   0.000006  -0.000258
     8  O    0.000816   7.713123   0.348422  -0.009563   0.010463   0.001289
     9  H   -0.000269   0.348422   0.490344  -0.001578  -0.000041   0.000709
    10  C    0.000150  -0.009563  -0.001578   5.393919   0.384039   0.095183
    11  H    0.000006   0.010463  -0.000041   0.384039   0.542588  -0.039067
    12  C   -0.000258   0.001289   0.000709   0.095183  -0.039067   5.243910
    13  H    0.000001  -0.000099   0.000006  -0.013227  -0.001424   0.400257
    14  O    0.000288  -0.021506   0.001718   0.130861  -0.020483  -0.017966
    15  H   -0.000140   0.000819  -0.000078  -0.031338   0.005165  -0.023098
    16  O    0.000130  -0.000021   0.000011  -0.029383   0.003927   0.194770
    17  H    0.000046   0.000199  -0.000027  -0.002479   0.000135  -0.038710
    18  C   -0.000003  -0.000703  -0.000091   0.054706  -0.000526   0.057738
    19  H    0.000000  -0.000023   0.000000  -0.007766   0.008003  -0.025722
    20  C    0.000135  -0.008882  -0.000598   0.017184  -0.001626   0.095334
    21  H    0.000334   0.007782   0.001151  -0.003192  -0.004926  -0.026347
    22  C   -0.000132   0.001056   0.000077   0.005099  -0.000075  -0.026024
    23  H   -0.000002   0.000003  -0.000004  -0.000338  -0.000120   0.017185
    24  H    0.000175  -0.000134  -0.000008   0.002696  -0.000322  -0.008133
    25  C    0.000001   0.000865   0.000024   0.012951  -0.016009  -0.008256
    26  H   -0.000000  -0.000162   0.000008  -0.024244   0.001152  -0.000721
    27  H   -0.000000   0.000065  -0.000013   0.020534   0.005977  -0.000982
    28  O   -0.000000   0.000011   0.000000  -0.067161   0.009611  -0.028984
    29  H    0.000000   0.000001   0.000000   0.010030  -0.000077  -0.000332
    30  O   -0.000001   0.000064   0.000006  -0.011839   0.022044  -0.070411
    31  H    0.000000   0.000000  -0.000006   0.001232  -0.000778   0.007386
    32  O    0.000000  -0.000002   0.000000   0.005955  -0.000162   0.013575
    33  H   -0.000001  -0.000001  -0.000000   0.000179  -0.000023   0.008850
    34  O   -0.000000   0.000001   0.000000   0.010102  -0.000349  -0.000681
    35  H   -0.000000   0.000000  -0.000000  -0.002336  -0.000060   0.000072
              13         14         15         16         17         18
     1  Si   0.000139   0.226688  -0.012542  -0.006990  -0.005600  -0.002244
     2  O   -0.000001  -0.021581   0.001735   0.000007  -0.000378  -0.000270
     3  H    0.000000   0.000784   0.000026   0.000035  -0.000036  -0.000043
     4  O   -0.000001   0.000464   0.000050  -0.000043   0.000200  -0.000007
     5  H    0.000000   0.000016  -0.000032   0.000006  -0.000057   0.000002
     6  O   -0.000205  -0.025252   0.002903  -0.043432   0.078316   0.000343
     7  H    0.000001   0.000288  -0.000140   0.000130   0.000046  -0.000003
     8  O   -0.000099  -0.021506   0.000819  -0.000021   0.000199  -0.000703
     9  H    0.000006   0.001718  -0.000078   0.000011  -0.000027  -0.000091
    10  C   -0.013227   0.130861  -0.031338  -0.029383  -0.002479   0.054706
    11  H   -0.001424  -0.020483   0.005165   0.003927   0.000135  -0.000526
    12  C    0.400257  -0.017966  -0.023098   0.194770  -0.038710   0.057738
    13  H    0.525994   0.001198  -0.000149  -0.022164   0.002536  -0.004002
    14  O    0.001198   7.684633   0.314916  -0.021128   0.002249  -0.009120
    15  H   -0.000149   0.314916   0.468589   0.048722  -0.001821   0.013957
    16  O   -0.022164  -0.021128   0.048722   8.024810   0.326947  -0.007331
    17  H    0.002536   0.002249  -0.001821   0.326947   0.400437   0.000866
    18  C   -0.004002  -0.009120   0.013957  -0.007331   0.000866   5.051352
    19  H   -0.002373  -0.008515   0.005618   0.007851  -0.000111   0.408149
    20  C   -0.052196   0.002016   0.003978  -0.038061   0.003505  -0.012739
    21  H    0.007257   0.000620  -0.000364   0.000582  -0.000526  -0.000560
    22  C   -0.000125   0.000007  -0.000471   0.016201  -0.000916  -0.001552
    23  H   -0.000465  -0.000007  -0.000007   0.000560   0.000006   0.000080
    24  H    0.003123   0.000038   0.000004  -0.003953  -0.000488  -0.000272
    25  C    0.001857  -0.001743  -0.003285   0.000901   0.000030   0.225603
    26  H   -0.000123   0.009440   0.000731  -0.000117  -0.000019  -0.032879
    27  H   -0.000045  -0.000734  -0.000029  -0.000033   0.000003  -0.046192
    28  O    0.023804   0.002484   0.000029   0.000230  -0.000054   0.315113
    29  H   -0.001270  -0.000280  -0.000022  -0.000025  -0.000001  -0.041968
    30  O    0.011394   0.000320  -0.000135   0.002073  -0.000192  -0.002618
    31  H   -0.000337  -0.000018   0.000023  -0.000482  -0.000049   0.000237
    32  O    0.017625  -0.000025   0.000011  -0.011352  -0.000247  -0.000532
    33  H   -0.004870  -0.000018  -0.000019   0.014526  -0.000620   0.000174
    34  O    0.000017   0.000105  -0.000024   0.000005  -0.000001  -0.094046
    35  H    0.000008   0.000060   0.000004  -0.000000   0.000000   0.010864
              19         20         21         22         23         24
     1  Si  -0.000731  -0.019213   0.001914   0.001225   0.000189  -0.000921
     2  O   -0.000016   0.000096  -0.000143  -0.000008  -0.000000   0.000008
     3  H   -0.000008  -0.000005  -0.000015   0.000001  -0.000000  -0.000001
     4  O   -0.000000   0.000110  -0.000023   0.000015  -0.000000  -0.000029
     5  H   -0.000000  -0.000036   0.000027   0.000004   0.000000  -0.000002
     6  O    0.000002   0.010304  -0.001041  -0.013421   0.000058   0.009591
     7  H    0.000000   0.000135   0.000334  -0.000132  -0.000002   0.000175
     8  O   -0.000023  -0.008882   0.007782   0.001056   0.000003  -0.000134
     9  H    0.000000  -0.000598   0.001151   0.000077  -0.000004  -0.000008
    10  C   -0.007766   0.017184  -0.003192   0.005099  -0.000338   0.002696
    11  H    0.008003  -0.001626  -0.004926  -0.000075  -0.000120  -0.000322
    12  C   -0.025722   0.095334  -0.026347  -0.026024   0.017185  -0.008133
    13  H   -0.002373  -0.052196   0.007257  -0.000125  -0.000465   0.003123
    14  O   -0.008515   0.002016   0.000620   0.000007  -0.000007   0.000038
    15  H    0.005618   0.003978  -0.000364  -0.000471  -0.000007   0.000004
    16  O    0.007851  -0.038061   0.000582   0.016201   0.000560  -0.003953
    17  H   -0.000111   0.003505  -0.000526  -0.000916   0.000006  -0.000488
    18  C    0.408149  -0.012739  -0.000560  -0.001552   0.000080  -0.000272
    19  H    0.632712   0.001509  -0.000064  -0.000170  -0.000002   0.000010
    20  C    0.001509   5.299112   0.400511   0.179130  -0.041702  -0.075056
    21  H   -0.000064   0.400511   0.595977  -0.011761  -0.001982   0.003711
    22  C   -0.000170   0.179130  -0.011761   4.742555   0.390402   0.458623
    23  H   -0.000002  -0.041702  -0.001982   0.390402   0.643351  -0.033164
    24  H    0.000010  -0.075056   0.003711   0.458623  -0.033164   0.609748
    25  C   -0.042731   0.000535  -0.000076   0.000021  -0.000001   0.000003
    26  H   -0.005229  -0.000259   0.000011  -0.000005  -0.000000   0.000000
    27  H    0.010273   0.000316  -0.000030   0.000002   0.000000   0.000000
    28  O   -0.045143  -0.001232  -0.000050   0.000041   0.000002  -0.000003
    29  H   -0.005543   0.000120   0.000008  -0.000010   0.000000   0.000000
    30  O   -0.000072   0.260602  -0.041071  -0.011363  -0.003874   0.005624
    31  H    0.000015  -0.032008  -0.009441  -0.006418   0.003959   0.000627
    32  O    0.000009  -0.087188   0.004130   0.295093  -0.033488  -0.040483
    33  H   -0.000005  -0.006080  -0.000284  -0.043578   0.010172  -0.014023
    34  O    0.006619   0.000002   0.000001  -0.000000   0.000000   0.000000
    35  H   -0.000712  -0.000004   0.000000   0.000000  -0.000000  -0.000000
              25         26         27         28         29         30
     1  Si   0.001070   0.000437  -0.000158   0.000141  -0.000004   0.000583
     2  O   -0.000508   0.000624  -0.000004   0.000000  -0.000000   0.000000
     3  H   -0.000098   0.000648  -0.000020   0.000001   0.000000  -0.000000
     4  O   -0.000000   0.000002  -0.000000   0.000000   0.000000   0.000000
     5  H   -0.000000  -0.000000  -0.000000   0.000000   0.000000   0.000000
     6  O   -0.000045   0.000005   0.000004   0.000002  -0.000000   0.000216
     7  H    0.000001  -0.000000  -0.000000  -0.000000   0.000000  -0.000001
     8  O    0.000865  -0.000162   0.000065   0.000011   0.000001   0.000064
     9  H    0.000024   0.000008  -0.000013   0.000000   0.000000   0.000006
    10  C    0.012951  -0.024244   0.020534  -0.067161   0.010030  -0.011839
    11  H   -0.016009   0.001152   0.005977   0.009611  -0.000077   0.022044
    12  C   -0.008256  -0.000721  -0.000982  -0.028984  -0.000332  -0.070411
    13  H    0.001857  -0.000123  -0.000045   0.023804  -0.001270   0.011394
    14  O   -0.001743   0.009440  -0.000734   0.002484  -0.000280   0.000320
    15  H   -0.003285   0.000731  -0.000029   0.000029  -0.000022  -0.000135
    16  O    0.000901  -0.000117  -0.000033   0.000230  -0.000025   0.002073
    17  H    0.000030  -0.000019   0.000003  -0.000054  -0.000001  -0.000192
    18  C    0.225603  -0.032879  -0.046192   0.315113  -0.041968  -0.002618
    19  H   -0.042731  -0.005229   0.010273  -0.045143  -0.005543  -0.000072
    20  C    0.000535  -0.000259   0.000316  -0.001232   0.000120   0.260602
    21  H   -0.000076   0.000011  -0.000030  -0.000050   0.000008  -0.041071
    22  C    0.000021  -0.000005   0.000002   0.000041  -0.000010  -0.011363
    23  H   -0.000001  -0.000000   0.000000   0.000002   0.000000  -0.003874
    24  H    0.000003   0.000000   0.000000  -0.000003   0.000000   0.005624
    25  C    4.757918   0.434388   0.406773  -0.029039  -0.001347   0.000139
    26  H    0.434388   0.621841  -0.042834   0.005094   0.001625  -0.000001
    27  H    0.406773  -0.042834   0.618605   0.000608  -0.002593  -0.000076
    28  O   -0.029039   0.005094   0.000608   7.822513   0.327361   0.000008
    29  H   -0.001347   0.001625  -0.002593   0.327361   0.514976   0.000017
    30  O    0.000139  -0.000001  -0.000076   0.000008   0.000017   7.832876
    31  H    0.000008  -0.000001   0.000002   0.000045   0.000004   0.326288
    32  O    0.000008  -0.000000   0.000000  -0.000016  -0.000001   0.004459
    33  H   -0.000004   0.000000  -0.000000  -0.000004  -0.000000  -0.000494
    34  O    0.310227  -0.043442  -0.047928  -0.009484   0.024068  -0.000000
    35  H   -0.028646  -0.001221  -0.009042  -0.000011  -0.001507   0.000000
              31         32         33         34         35
     1  Si   0.000012  -0.000015   0.000017   0.000007  -0.000002
     2  O    0.000000  -0.000000   0.000000   0.000000   0.000000
     3  H    0.000000  -0.000000  -0.000000  -0.000003  -0.000000
     4  O   -0.000000  -0.000000   0.000000   0.000000   0.000000
     5  H   -0.000000  -0.000000  -0.000000  -0.000000  -0.000000
     6  O    0.000017   0.000036   0.000188   0.000000  -0.000000
     7  H    0.000000   0.000000  -0.000001  -0.000000  -0.000000
     8  O    0.000000  -0.000002  -0.000001   0.000001   0.000000
     9  H   -0.000006   0.000000  -0.000000   0.000000  -0.000000
    10  C    0.001232   0.005955   0.000179   0.010102  -0.002336
    11  H   -0.000778  -0.000162  -0.000023  -0.000349  -0.000060
    12  C    0.007386   0.013575   0.008850  -0.000681   0.000072
    13  H   -0.000337   0.017625  -0.004870   0.000017   0.000008
    14  O   -0.000018  -0.000025  -0.000018   0.000105   0.000060
    15  H    0.000023   0.000011  -0.000019  -0.000024   0.000004
    16  O   -0.000482  -0.011352   0.014526   0.000005  -0.000000
    17  H   -0.000049  -0.000247  -0.000620  -0.000001   0.000000
    18  C    0.000237  -0.000532   0.000174  -0.094046   0.010864
    19  H    0.000015   0.000009  -0.000005   0.006619  -0.000712
    20  C   -0.032008  -0.087188  -0.006080   0.000002  -0.000004
    21  H   -0.009441   0.004130  -0.000284   0.000001   0.000000
    22  C   -0.006418   0.295093  -0.043578  -0.000000   0.000000
    23  H    0.003959  -0.033488   0.010172   0.000000  -0.000000
    24  H    0.000627  -0.040483  -0.014023   0.000000  -0.000000
    25  C    0.000008   0.000008  -0.000004   0.310227  -0.028646
    26  H   -0.000001  -0.000000   0.000000  -0.043442  -0.001221
    27  H    0.000002   0.000000  -0.000000  -0.047928  -0.009042
    28  O    0.000045  -0.000016  -0.000004  -0.009484  -0.000011
    29  H    0.000004  -0.000001  -0.000000   0.024068  -0.001507
    30  O    0.326288   0.004459  -0.000494  -0.000000   0.000000
    31  H    0.555863   0.000524  -0.000071   0.000000  -0.000000
    32  O    0.000524   7.850421   0.333588   0.000000  -0.000000
    33  H   -0.000071   0.333588   0.513346  -0.000000   0.000000
    34  O    0.000000   0.000000  -0.000000   7.856425   0.326357
    35  H   -0.000000  -0.000000   0.000000   0.326357   0.533565
 Mulliken charges:
               1
     1  Si   0.793678
     2  O   -0.407779
     3  H    0.181331
     4  O   -0.313180
     5  H    0.203993
     6  O   -0.696478
     7  H    0.232905
     8  O   -0.378298
     9  H    0.178843
    10  C    0.088823
    11  H    0.099474
    12  C    0.139705
    13  H    0.107858
    14  O   -0.230530
    15  H    0.206274
    16  O   -0.457781
    17  H    0.236857
    18  C    0.118514
    19  H    0.064166
    20  C    0.102385
    21  H    0.077881
    22  C    0.026477
    23  H    0.049190
    24  H    0.083011
    25  C   -0.021534
    26  H    0.075249
    27  H    0.087550
    28  O   -0.325916
    29  H    0.176768
    30  O   -0.324566
    31  H    0.153365
    32  O   -0.351926
    33  H    0.189055
    34  O   -0.337977
    35  H    0.172611
 Sum of Mulliken charges =  -0.00000
 Mulliken charges with hydrogens summed into heavy atoms:
               1
     1  Si   0.793678
     2  O   -0.226449
     4  O    0.123719
     6  O   -0.696478
     8  O   -0.199454
    10  C    0.188297
    12  C    0.247563
    14  O   -0.024256
    16  O   -0.220924
    18  C    0.182681
    20  C    0.180266
    22  C    0.158678
    25  C    0.141265
    28  O   -0.149147
    30  O   -0.171202
    32  O   -0.162870
    34  O   -0.165367
 Electronic spatial extent (au):  <R**2>=           5038.2914
 Charge=              0.0000 electrons
 Dipole moment (field-independent basis, Debye):
    X=              1.1503    Y=             -6.1045    Z=              2.5468  Tot=              6.7138
 Quadrupole moment (field-independent basis, Debye-Ang):
   XX=            -97.1494   YY=           -104.8625   ZZ=           -105.8717
   XY=              8.7765   XZ=              3.5284   YZ=              1.3808
 Traceless Quadrupole moment (field-independent basis, Debye-Ang):
   XX=              5.4785   YY=             -2.2346   ZZ=             -3.2439
   XY=              8.7765   XZ=              3.5284   YZ=              1.3808
 Octapole moment (field-independent basis, Debye-Ang**2):
  XXX=             35.5661  YYY=           -119.5435  ZZZ=             21.5450  XYY=              3.7108
  XXY=            -57.6603  XXZ=             12.3998  XZZ=              5.4332  YZZ=             11.7832
  YYZ=             30.2516  XYZ=             17.8480
 Hexadecapole moment (field-independent basis, Debye-Ang**3):
 XXXX=          -2480.1176 YYYY=          -2585.3823 ZZZZ=           -498.3426 XXXY=            -18.9452
 XXXZ=            -95.1020 YYYX=            148.8931 YYYZ=             40.7490 ZZZX=             35.3695
 ZZZY=             24.2471 XXYY=           -759.5381 XXZZ=           -596.1570 YYZZ=           -459.2616
 XXYZ=            -70.4386 YYXZ=            -14.5888 ZZXY=             -1.7714
 N-N= 1.673540467566D+03 E-N=-6.373261465235D+03  KE= 1.276771617052D+03
   1 Symmetry operations used in ECPInt.
 ECPInt:  NShTT=   44551 NPrTT=  121227 LenC2=   39232 LenP2D=   78753.
 LDataN:  DoStor=T MaxTD1= 7 Len=  274
 Calling FoFJK, ICntrl=      2127 FMM=F ISym2X=0 I1Cent= 0 IOpClX= 0 NMat=1 NMatS=1 NMatT=0.
 ***** Axes restored to original set *****
 -------------------------------------------------------------------
 Center     Atomic                   Forces (Hartrees/Bohr)
 Number     Number              X              Y              Z
 -------------------------------------------------------------------
      1       14          -0.001125618   -0.000040956   -0.000567533
      2        8           0.000823550    0.001600383   -0.001396137
      3        1          -0.000824171   -0.001328394    0.000801084
      4        8           0.001708471   -0.000008821    0.001338364
      5        1           0.000083296   -0.000003727   -0.000033122
      6        8           0.000345757   -0.000244071   -0.000045264
      7        1           0.000041838    0.000194454   -0.000085117
      8        8           0.000335022   -0.000370668   -0.000110788
      9        1          -0.000048855   -0.000020522   -0.000056500
     10        6          -0.000136948    0.000100975    0.000060043
     11        1          -0.000020908    0.000017785   -0.000013870
     12        6          -0.000113040    0.000034592   -0.000020671
     13        1           0.000017034    0.000016093   -0.000010450
     14        8          -0.000154600    0.000072364    0.000131359
     15        1          -0.000020054   -0.000100704    0.000046889
     16        8          -0.000106131   -0.000057502   -0.000033081
     17        1           0.000000929   -0.000017905    0.000012182
     18        6          -0.000167389    0.000028568    0.000066435
     19        1           0.000000369   -0.000000668   -0.000001401
     20        6          -0.000051363    0.000001289   -0.000022621
     21        1           0.000011734   -0.000025372   -0.000020586
     22        6          -0.000003141   -0.000030947   -0.000066678
     23        1           0.000002982    0.000002209    0.000001856
     24        1           0.000000465   -0.000000679    0.000001174
     25        6          -0.000156845    0.000032873    0.000023474
     26        1           0.000008174   -0.000001004   -0.000005325
     27        1           0.000004758    0.000002349   -0.000003457
     28        8          -0.000187278    0.000063772    0.000146202
     29        1          -0.000004030   -0.000049522    0.000003027
     30        8          -0.000065249    0.000035601   -0.000051076
     31        1           0.000001211   -0.000000906   -0.000002461
     32        8           0.000022378   -0.000050851   -0.000094763
     33        1          -0.000001753    0.000008289    0.000007580
     34        8          -0.000218388    0.000141220    0.000004088
     35        1          -0.000002206    0.000000406   -0.000002854
 -------------------------------------------------------------------
 Cartesian Forces:  Max     0.001708471 RMS     0.000383262

 GradGradGradGradGradGradGradGradGradGradGradGradGradGradGradGradGradGrad
 Berny optimization.
 FormGI is forming the generalized inverse of G from B-inverse, IUseBI=4.
 Internal  Forces:  Max     0.005033356 RMS     0.000607635
 Search for a local minimum.
 Step number   1 out of a maximum of  182
 All quantities printed in internal units (Hartrees-Bohrs-Radians)
 Mixed Optimization -- En-DIIS/RFO-DIIS
 Second derivative matrix not updated -- first step.
 ITU=  0
     Eigenvalues ---    0.00230   0.00230   0.00230   0.00355   0.00410
     Eigenvalues ---    0.00456   0.00507   0.00923   0.01400   0.01470
     Eigenvalues ---    0.01481   0.01558   0.01602   0.01655   0.02480
     Eigenvalues ---    0.03760   0.03812   0.03924   0.04037   0.04442
     Eigenvalues ---    0.04500   0.04521   0.04671   0.04704   0.04856
[...]
 ,-0.00689788,-0.00946221,-0.00205615,0.00169943,0.00056790,0.00080692,
 -0.00084173,-0.00017567,0.00010976,0.00009909,0.00024706,0.08790522,-0
 .02802086,-0.17137675,0.00757346,-0.00559478,-0.00267582,0.02062031,-0
 .00738580,-0.02264441,-0.00089338,-0.00012459,0.00287267,0.00226119,0.
 00433644,-0.00172249,-0.00011327,0.00034057,-0.00040532,0.00002417,0.0
 0009271,0.00006524,-0.00000580,-0.00009963,0.00011639,-0.00085133,0.00
 008674,0.00107556,0.00002878,-0.00013318,-0.00026911,0.11165427,0.1703
 7345,0.56486766,0.00025935,0.00010155,0.00025041,-0.00003466,-0.000078
 01,-0.00006288,0.00001047,0.00002117,0.00001051,0.00011567,-0.00042815
 ,-0.00032264,-0.00004263,0.00003299,-0.00003318,-0.00027727,-0.0000631
 7,-0.00023562,0.00018165,0.00012704,0.00029548,-0.00013510,-0.00015064
 ,-0.00016600,0.00010649,0.00024129,0.00007814,-0.00003497,0.00019434,0
 .00012733,-0.00000128,0.00002923,-0.00008944,-0.00353589,0.00035200,0.
 00213655,0.00037271,-0.00025012,0.00020292,-0.00007452,0.00000018,-0.0
 0010200,0.00001004,-0.00011481,0.00008566,0.00077669,0.00063383,0.0019
 4600,0.00033137,-0.00021965,-0.00016999,0.00000316,0.00019344,0.000099
 01,-0.00000226,-0.00000913,-0.00000734,0.01110426,0.01009659,0.0284739
 6,0.00029551,0.00086854,0.00079106,0.00112726,0.00124682,0.00182578,-0
 .00040200,-0.00086705,-0.00054910,-0.00024839,-0.00017061,-0.00003145,
 0.00003524,0.00002002,-0.00005315,-0.00000239,-0.00000760,0.00001411,0
 .00000528,-0.00000894,0.00000735,-0.00023676,-0.00010517,0.00007195,0.
 00002011,-0.00008161,-0.00011857,-0.21397435,-0.09635369,-0.24830983,0
 .20480349,-0.00025716,-0.00012311,-0.00098562,0.00003851,0.00013213,0.
 00021581,-0.00000027,-0.00005551,-0.00004580,-0.00040813,-0.00003613,0
 .00021239,-0.00001082,0.00011162,0.00007818,0.00011319,-0.00003002,0.0
 0060446,0.00003643,-0.00005268,-0.00027366,-0.00011927,0.00031505,0.00
 066878,0.00025485,-0.00031986,-0.00023372,0.00007043,0.00058394,-0.000
 22055,-0.00018249,-0.00005978,-0.00015251,0.00210326,-0.00051722,-0.00
 136837,0.00003509,0.00016797,0.00009632,0.00013447,-0.00013664,0.00017
 680,0.00000663,0.00018798,-0.00015780,-0.00049879,-0.00035588,-0.00067
 178,-0.00034890,0.00031983,-0.00006140,-0.00003271,-0.00003807,0.00014
 869,0.00006506,0.00000160,0.00002137,-0.00521297,-0.00389537,-0.006562
 09,-0.00066584,0.00010086,0.00006982,0.00142794,0.00210314,0.00221828,
 -0.00084023,-0.00053289,-0.00025124,-0.00009085,-0.00032425,-0.0003719
 1,-0.00012873,0.00001048,-0.00011675,0.00000308,-0.00001067,0.00000963
 ,-0.00000428,-0.00001973,0.00004111,0.00003440,-0.00009999,0.00007069,
 -0.00003774,0.00002720,-0.00004425,-0.07998556,-0.04629326,-0.12099770
 ,0.08470410,0.04959740,0.00000505,-0.00060433,0.00009832,-0.00000432,0
 .00020424,0.00001223,0.00000651,-0.00002505,0.00000901,-0.00020086,0.0
 0023190,-0.00026498,0.00000671,0.00000351,0.00008817,-0.00005173,0.000
 42922,0.00017875,0.00019228,-0.00019139,0.00001041,-0.00000832,0.00022
 243,-0.00021572,-0.00000444,-0.00011144,0.00016303,-0.00005289,-0.0001
 6861,-0.00004761,-0.00004621,-0.00024979,0.00009364,0.00488258,-0.0003
 0574,-0.00345814,0.00053127,0.00021049,0.00035625,-0.00000566,0.000216
 90,0.00026678,-0.00002901,0.00008351,-0.00009361,-0.00044749,-0.000797
 18,-0.00127888,-0.00029033,-0.00008725,-0.00011856,-0.00010902,-0.0000
 1685,-0.00001911,0.00002370,0.00001169,-0.00000028,-0.02163211,-0.0107
 2417,-0.02844757,0.00006474,-0.00039441,0.00234046,-0.00183403,0.00084
 450,-0.00001209,0.00097958,0.00129347,-0.00019487,-0.00010337,-0.00044
 967,0.00094846,-0.00003119,-0.00007024,0.00006986,0.00000040,0.0000024
 6,-0.00000680,-0.00000295,0.00000305,-0.00001274,0.00019409,0.00007630
 ,-0.00008300,-0.00001721,0.00001781,0.00008481,-0.19706847,-0.11738371
 ,-0.32720664,0.21442584,0.12817272,0.35612155,-0.00187915,-0.00094037,
 -0.00020665,0.00032585,0.00036872,0.00007650,-0.00003327,-0.00001211,-
 0.00001735,0.00005379,0.00118809,-0.00022938,0.00013278,-0.00020456,0.
 00011668,0.00121991,0.00129135,0.00051366,-0.00002094,-0.00103086,-0.0
 0016127,0.00051082,0.00042471,0.00010599,-0.00030469,-0.00040607,0.000
 03177,0.00140846,0.00060186,0.00037011,-0.00015086,-0.00032937,0.00007
 616,-0.00249932,-0.00020194,-0.00191515,0.00211995,0.00007949,0.000634
 23,0.00113979,-0.00112366,-0.00001948,-0.00017670,0.00026406,-0.000003
 00,0.00150442,-0.00092716,0.00066176,-0.00165402,-0.00065877,-0.000592
 27,-0.00020988,0.00060858,-0.00002596,0.00003673,0.00004756,0.00002154
 ,0.00621628,0.00192465,0.00151505,0.00011938,-0.00213768,0.00106361,-0
 .14142247,0.08275923,-0.04491925,-0.01167095,0.01243755,-0.01247719,-0
 .02315813,0.02515744,-0.02135468,0.00000353,-0.00000838,-0.00000669,-0
 .00000596,-0.00005993,-0.00001642,-0.00001299,-0.00001260,0.00003340,0
 .00021445,-0.00047748,0.00009244,0.00001538,0.00011119,-0.00007010,0.0
 0465003,0.00017815,-0.00261145,-0.00039137,-0.00026654,0.00063073,0.20
 088934,-0.00030210,0.00210306,0.00054714,0.00005199,-0.00079976,-0.000
 31025,-0.00002911,0.00014172,0.00003922,0.00086131,-0.00021331,0.00046
 888,-0.00002045,-0.00014226,-0.00016614,0.00067344,-0.00124409,-0.0006
 5872,-0.00060929,0.00039395,-0.00002286,0.00020862,-0.00079938,0.00002
 684,-0.00024316,0.00039777,-0.00017723,0.00057540,0.00078355,0.0004056
 6,0.00000240,0.00013432,-0.00012112,0.00175568,0.00271892,0.00090270,0
 .00032405,-0.00076864,-0.00015043,-0.00005091,-0.00082031,0.00003317,0
 .00021326,0.00054532,0.00014366,0.00044871,-0.00355229,-0.00157009,-0.
 00051008,0.00020153,0.00053537,0.00050029,-0.00017543,-0.00014379,-0.0
 0007175,-0.00001305,-0.00001968,0.03029622,-0.02836540,0.01874231,-0.0
 0425906,-0.00607445,0.00369454,0.06116473,-0.14262997,0.01644712,-0.00
 680301,0.01164553,-0.00258899,0.01595075,-0.01123802,0.01125509,0.0002
 0659,0.00025589,-0.00002166,0.00000188,0.00002867,-0.00000123,-0.00001
 238,0.00001057,-0.00002094,-0.00051973,0.00006128,0.00012521,0.0001338
 5,-0.00009320,-0.00000549,-0.00292768,0.00355516,0.00147991,-0.0000312
 2,-0.00081425,-0.00031565,-0.07989316,0.30751549,-0.00020853,-0.000839
 87,-0.00103699,0.00003783,0.00032874,0.00025789,0.00000164,-0.00006866
 ,-0.00004947,-0.00046008,0.00059251,0.00011263,0.00002800,-0.00000686,
 0.00005537,0.00019511,0.00033309,0.00117483,0.00015825,-0.00038364,-0.
 00047510,-0.00003116,0.00052850,0.00043705,0.00006059,-0.00043205,-0.0
 0001266,0.00068042,-0.00057037,-0.00002303,-0.00011699,-0.00034969,0.0
 0013624,0.00066179,-0.00148780,-0.00375270,0.00063128,0.00050661,0.000
 34033,0.00003603,-0.00023641,0.00069489,0.00000637,0.00055737,-0.00032
 440,-0.00084696,-0.00315762,0.00223770,-0.00082784,0.00022686,-0.00058
 600,-0.00015921,0.00030677,-0.00011462,0.00007026,0.00004454,0.0000841
 5,-0.01608832,0.01741622,-0.00790478,0.00205456,0.00342193,-0.00067309
 ,-0.06885747,0.05511768,-0.12623749,-0.02505071,0.02379101,-0.01962070
 ,0.00179771,-0.00464026,0.01230732,-0.00005079,-0.00014100,-0.00000376
 ,0.00000053,0.00000629,0.00000755,-0.00000091,-0.00002076,0.00003223,0
 .00017389,-0.00001464,0.00012086,-0.00006577,0.00005546,-0.00003627,0.
 00076265,-0.00086969,0.00103429,-0.00061159,-0.00026565,0.00069470,0.1
 8684368,0.12910646,0.55219466,0.00066730,0.00028646,-0.00010791,-0.000
 12579,-0.00009342,0.00001648,0.00001521,-0.00000399,-0.00000143,-0.000
 05038,-0.00011684,0.00011120,-0.00001352,0.00003340,-0.00003357,-0.000
 34804,-0.00042556,0.00012342,-0.00000866,0.00014945,-0.00008971,-0.000
 15865,-0.00009363,0.00006361,0.00005858,0.00005729,-0.00002731,-0.0002
 4355,-0.00031304,0.00011368,0.00002091,0.00005722,-0.00002713,0.002268
 18,-0.00068176,-0.00054475,-0.00099968,-0.00063376,0.00059577,-0.00050
 462,0.00034749,0.00027993,0.00010752,0.00016797,-0.00012110,-0.0022341
 1,-0.00151434,0.00047788,0.00049911,0.00109840,-0.00020409,0.00010445,
 -0.00015428,0.00002580,-0.00001074,-0.00003745,-0.00002400,0.00142374,
 0.00070620,0.00092787,-0.00023916,-0.00021309,-0.00008898,-0.01103675,
 -0.01044898,-0.03010684,-0.00335039,0.00388302,-0.00298795,0.00045778,
 -0.00131635,-0.00029142,0.00000601,-0.00003492,-0.00000795,0.00000298,
 0.00003099,0.00001071,0.00000650,0.00001170,-0.00001853,-0.00008652,0.
 00023510,-0.00009122,-0.00002091,-0.00005052,0.00005394,-0.00058412,-0
 .00044624,0.00044278,-0.00013106,-0.00000989,-0.00009462,-0.03705735,-
 0.01666267,-0.08103772,0.05157138,0.00086190,-0.00091556,0.00049118,-0
 .00014938,0.00037699,0.00006723,0.00002975,-0.00007172,0.00000345,-0.0
 0020594,-0.00026279,-0.00023239,0.00001623,0.00005988,0.00001525,-0.00
 114436,0.00062801,-0.00061408,0.00021780,0.00022263,0.00029919,-0.0001
 9901,0.00010375,-0.00037479,0.00011583,0.00010181,0.00010591,-0.000371
 15,-0.00004102,-0.00012714,0.00009277,0.00023910,-0.00005956,-0.001846
 95,-0.00245172,0.00397027,-0.00078202,-0.00048958,0.00018939,-0.000226
 44,0.00109841,-0.00077715,-0.00019065,-0.00127611,0.00027216,0.0000746
 2,0.00362907,-0.00118642,0.00186804,-0.00073004,0.00011781,-0.00034749
 ,0.00008370,0.00007717,-0.00003699,-0.00002771,-0.00004662,0.00168357,
 0.00042571,0.00224576,-0.00021998,-0.00032380,-0.00029788,0.00977303,0
 .00836535,0.02816788,0.00236319,-0.00182880,0.00215695,0.00107765,0.00
 005081,-0.00008804,-0.00010775,-0.00015474,0.00001995,-0.00000483,-0.0
 0002453,0.00000130,0.00001771,0.00000716,-0.00000779,0.00034373,-0.000
 03557,-0.00018313,-0.00007918,0.00004032,0.00001377,-0.00041586,-0.000
 58156,-0.00061802,0.00011190,0.00007810,-0.00020001,-0.03870002,-0.132
 54910,-0.21897262,0.02613228,0.12612952,-0.00038200,0.00032734,0.00026
 268,0.00006753,-0.00016067,-0.00010981,-0.00000977,0.00003582,0.000015
 76,0.00015857,-0.00010807,0.00002620,-0.00000982,-0.00001279,-0.000020
 59,0.00011693,-0.00006720,-0.00032560,-0.00008851,0.00011468,0.0000722
 4,0.00009797,-0.00014344,-0.00007610,-0.00004573,0.00008425,-0.0000070
 1,0.00020334,0.00039164,-0.00027848,-0.00001680,0.00005212,-0.00000617
 ,-0.00055860,0.00186865,0.00094178,0.00099405,0.00043437,-0.00000646,0
 .00027589,-0.00057324,-0.00024751,0.00000754,-0.00004030,0.00018550,0.
 00046332,-0.00070498,-0.00143164,0.00001032,0.00003015,0.00015063,0.00
 009041,-0.00000678,0.00011287,-0.00001965,-0.00001023,-0.00003830,0.00
 069983,-0.00063940,-0.00124764,-0.00014354,-0.00046820,0.00054393,-0.0
 0537962,-0.01052510,-0.02165142,-0.00155717,0.00312274,0.00063657,0.00
 091166,-0.00083454,0.00262308,0.00003083,0.00008813,-0.00001694,-0.000
 00007,-0.00001385,-0.00000467,-0.00000458,0.00000877,-0.00000811,-0.00
 010402,-0.00011441,-0.00001554,0.00004494,-0.00001442,0.00000789,-0.00
 024891,0.00011001,0.00046537,0.00001032,-0.00006818,-0.00005688,-0.108
 16078,-0.17764895,-0.41109315,0.11266830,0.18557640,0.43060866,0.00358
 595,-0.00022353,-0.00019150,-0.00085973,0.00049965,0.00036554,0.000336
 46,-0.00029092,-0.00006916,-0.00039662,-0.00025363,-0.00031696,0.00006
 412,0.00002901,0.00007342,-0.00115906,-0.00042637,0.00012073,0.0002897
 9,0.00016370,0.00028963,-0.00101144,-0.00007074,-0.00038905,0.00030992
 ,0.00022942,0.00021454,0.00176106,-0.00336839,0.00137603,0.00047444,0.
 00033602,0.00038656,-0.00085796,0.00131287,-0.00111431,-0.00010066,-0.
 00003295,0.00006781,-0.00193999,-0.00092709,0.00037961,0.00022775,0.00
 052013,-0.00073122,-0.00070129,-0.00104228,0.00085642,0.00038104,0.000
 13036,-0.00004924,-0.03059258,-0.00841337,-0.00210886,0.00109452,0.000
 64876,0.00038802,-0.00013022,-0.00018558,0.00087389,0.00010459,-0.0000
 0128,0.00000524,-0.00009853,0.00026397,-0.00049019,-0.00005918,-0.0001
 5762,0.00000271,0.00003416,0.00001281,0.00002295,-0.23644287,0.0106709
 6,-0.04003774,-0.03664547,-0.00224445,-0.00322705,-0.02709981,-0.00373
 723,-0.00746501,0.00256827,0.00048204,-0.00044153,-0.00103328,-0.00095
 775,0.00071400,0.00008865,-0.00048323,-0.00037698,-0.00004446,0.000102
 14,0.00009891,0.00007747,-0.00047307,0.00022968,0.00000176,0.00027538,
 -0.00013299,0.42083244,0.00095847,-0.00143601,0.00003370,0.00001730,0.
 00072836,0.00018158,-0.00017120,-0.00011213,-0.00000797,-0.00014889,0.
 00008093,-0.00011246,0.00001788,-0.00000660,0.00003031,-0.00048675,0.0
 0044759,-0.00004205,0.00011874,-0.00003520,0.00006589,-0.00018205,0.00
 044275,-0.00007848,0.00007500,-0.00008333,0.00003211,0.00107003,-0.009
 13934,0.00155539,0.00012430,-0.00010183,0.00022082,-0.00145018,0.00086
 575,-0.00143824,0.00002292,0.00031913,-0.00006537,-0.00061735,0.001718
 90,0.00040714,0.00008773,-0.00023782,-0.00016614,-0.00090862,-0.000112
 11,0.00098479,0.00046927,-0.00023761,0.00006469,-0.04281192,-0.0104661
 1,-0.00716818,0.00083460,0.00226202,-0.00057445,-0.00002170,-0.0004285
 7,0.00067113,0.00001041,-0.00000612,-0.00002431,-0.00003546,0.00008756
 ,-0.00038409,-0.00005460,-0.00012555,0.00001132,-0.00001768,-0.0000004
 2,0.00004201,-0.02449488,-0.08475220,0.00894246,0.02140764,0.00884247,
 0.00698904,0.00172323,0.00316857,-0.00112635,-0.00624692,0.00050608,0.
 00131116,-0.00055157,0.00231286,0.00001412,-0.00010277,-0.00016867,-0.
 00020522,-0.00002435,-0.00000470,0.00006851,-0.00006821,-0.00023262,0.
 00013678,0.00006295,0.00014254,-0.00010434,0.16652923,0.45997292,-0.00
 043691,0.00006391,-0.00077362,0.00014932,0.00008168,0.00019645,-0.0000
 5288,-0.00001994,-0.00008809,-0.00000047,-0.00002048,0.00009178,0.0000
 0303,0.00000079,-0.00001132,0.00016382,0.00000683,0.00019278,-0.000040
 23,-0.00001305,-0.00008810,-0.00014056,-0.00006320,0.00045171,0.000053
 97,0.00002269,-0.00005125,0.00012300,0.00254572,-0.00079531,0.00062496
 ,0.00029783,0.00017801,0.00083268,0.00000043,0.00048500,0.00002169,-0.
 00001859,-0.00005434,0.00017785,0.00053378,0.00029474,-0.00012870,-0.0
 0014210,0.00002171,-0.00000075,0.00011306,0.00007284,-0.00006910,-0.00
 001048,-0.00001292,0.01609714,0.00002815,0.00393563,0.00006021,-0.0018
 7417,0.00130422,0.00014454,0.00017982,-0.00041957,-0.00001544,0.000001
 06,-0.00000227,0.00000420,0.00002615,0.00009233,0.00002720,0.00004150,
 -0.00000105,-0.00001299,-0.00001371,0.00001164,-0.01346110,0.01869497,
 -0.07856215,0.01416013,0.00354759,0.00892491,-0.03805141,-0.00275419,0
 .00242727,-0.00124654,-0.00084082,0.00240358,-0.00018241,0.00060430,-0
 .00239288,-0.00014029,-0.00004997,0.00029063,0.00003045,0.00006249,-0.
 00004426,0.00000324,-0.00000249,0.00003574,-0.00000750,-0.00001954,-0.
 00001525,-0.03600160,-0.22998875,0.18768971,-0.00033028,-0.00024031,0.
 00009750,0.00013866,0.00005560,-0.00003681,-0.00009422,0.00001770,0.00
 001978,0.00005601,0.00006045,0.00003361,-0.00001088,-0.00000762,-0.000
 00901,0.00010277,0.00013652,-0.00003501,-0.00003384,-0.00003311,-0.000
 03440,0.00015262,0.00009971,0.00000245,-0.00005436,-0.00005427,-0.0000
 2610,0.00005311,-0.00203980,0.00074713,0.00001361,-0.00003548,-0.00003
 834,-0.00049863,0.00011308,-0.00028771,-0.00000287,-0.00000667,0.00001
 471,0.00029927,0.00020979,-0.00008048,-0.00007147,-0.00010197,0.000036
 20,0.00001704,0.00006295,0.00009277,0.00000590,-0.00004436,0.00001007,
 -0.00842059,0.00106171,-0.00166098,0.00014526,0.00043333,-0.00005630,-
 0.00003366,-0.00014292,0.00012234,0.00000149,0.00000690,0.00000202,-0.
 00001675,-0.00003333,-0.00003696,-0.00000778,-0.00000655,0.00000932,-0
 .00000352,-0.00000179,-0.00000155,-0.01798377,-0.03709630,0.02057208,-
 0.00001909,0.00011570,0.00088360,0.00160549,-0.00021578,-0.00103360,0.
 00113036,0.00158434,0.00017760,0.00008327,-0.00129343,-0.00069101,0.00
 003436,0.00006780,-0.00001853,0.00001062,-0.00002844,-0.00000815,0.000
 00970,0.00004964,-0.00001623,-0.00000741,-0.00002740,0.00001081,-0.093
 05922,-0.11513461,0.05731144,0.11678881,-0.00035059,0.00021123,0.00010
 707,0.00004175,-0.00016010,-0.00007453,0.00001172,0.00005882,0.0000143
 1,0.00003673,0.00000369,0.00001656,-0.00000619,0.00000231,-0.00000534,
 0.00011579,-0.00002377,-0.00002777,-0.00002213,-0.00000327,-0.00001306
 ,0.00011073,-0.00004980,-0.00001860,-0.00003102,-0.00000530,-0.0000076
 7,0.00024125,-0.00026726,0.00017743,-0.00010351,-0.00005146,-0.0000386
 9,-0.00011597,-0.00006093,-0.00000435,-0.00002215,0.00001652,0.0000132
 3,0.00026989,0.00008083,-0.00005398,-0.00003571,-0.00002139,0.00005699
 ,0.00006344,0.00005190,-0.00006195,-0.00005233,0.00000402,0.00000891,-
 0.00106274,-0.00101208,-0.00088729,0.00014323,0.00028369,-0.00025657,-
 0.00003697,-0.00000807,0.00004791,-0.00000275,-0.00000046,-0.00000144,
 -0.00000531,-0.00001261,0.00000978,-0.00000136,0.00000512,0.00000272,0
 .00000328,0.00000029,-0.00000730,0.00538396,-0.00150375,0.00132190,0.0
 0148531,0.00059571,-0.00017196,0.00150200,0.00055054,0.00017164,-0.001
 10141,0.00058725,-0.00002717,-0.00005326,0.00074555,0.00099210,0.00004
 639,0.00003921,-0.00005111,-0.00001110,-0.00001730,0.00000279,0.000016
 24,0.00003282,-0.00001923,-0.00000921,-0.00001851,0.00001404,-0.158916
 97,-0.37421153,0.20897874,0.15246896,0.37415807,0.00019039,0.00010103,
 0.00025894,-0.00009454,-0.00007530,-0.00008072,0.00005220,0.00000898,0
 .00003982,-0.00001510,-0.00000950,-0.00004855,0.00000073,0.00000113,0.
 00000899,-0.00006732,-0.00004484,-0.00007088,0.00002441,0.00001452,0.0
 0004352,-0.00000142,-0.00001081,-0.00017621,-0.00000472,0.00000645,0.0
 0003531,-0.00005970,-0.00044417,0.00066609,0.00007084,-0.00000833,-0.0
 0000541,-0.00020290,0.00000800,-0.00002196,-0.00001294,0.00002266,-0.0
 0000152,-0.00012948,-0.00008903,-0.00008253,0.00003156,0.00006048,-0.0
 0000139,-0.00003170,-0.00007226,-0.00000823,0.00002301,0.00001209,0.00
 001213,-0.00156840,-0.00072233,-0.00039756,-0.00009841,-0.00022409,0.0
 0027417,-0.00004238,-0.00000368,0.00011730,0.00000063,-0.00000281,-0.0
 0000524,0.00000159,-0.00000175,-0.00001699,-0.00000748,-0.00001368,-0.
 00000259,0.00000661,0.00000559,-0.00000448,-0.00732322,-0.00773904,0.0
 0163928,0.00012596,0.00067808,-0.00021041,-0.00084875,-0.00099391,0.00
 088934,-0.00059597,-0.00062554,-0.00014193,-0.00005376,0.00066618,0.00
 017925,0.00004599,-0.00000743,-0.00011795,-0.00002007,-0.00001856,0.00
 002528,-0.00000348,-0.00000758,-0.00001422,0.00000235,0.00001415,0.000
 00411,0.08667772,0.21972342,-0.12578831,-0.07607226,-0.21020811,0.1230
 0354\\-0.00001481,0.00001535,0.00001340,0.00000553,-0.00000666,-0.0000
 1500,0.00000040,-0.00000020,0.00000573,0.,-0.00000101,0.00000693,-0.00
 000177,0.00000185,0.00000292,0.00000378,-0.00000084,0.00000018,-0.0000
 0059,-0.00000087,-0.00000735,-0.00000131,0.00000449,-0.00000240,-0.000
 00205,-0.00000448,0.00000024,0.00000200,0.00000294,-0.00000471,-0.0000
 0046,-0.00000264,-0.00000094,-0.00000292,-0.00000278,0.00001096,0.0000
 0139,0.00000074,0.00000106,0.00001778,-0.00000335,0.00000231,-0.000005
 52,-0.00000146,0.00000294,0.00000431,0.00000011,-0.00001038,-0.0000010
 4,-0.00000060,-0.00000040,-0.00000294,-0.00000210,0.00000055,0.0000005
 4,0.00000056,-0.00000118,0.00000347,-0.00000153,-0.00000451,-0.0000002
 1,0.00000102,0.00000326,-0.00000320,0.00000454,-0.00000265,-0.00000237
 ,-0.00000052,0.00000184,0.00000161,0.00000061,0.00000226,-0.00000048,-
 0.00000018,-0.00000249,0.00000073,-0.00000031,-0.00000101,-0.00000040,
 -0.00000022,-0.00000142,-0.00000038,-0.00000124,-0.00000122,0.00000022
 ,-0.00000026,-0.00000236,-0.00000458,0.00000215,0.00000182,-0.00000075
 ,-0.00000335,0.00000148,0.00000528,0.00000409,0.00000285,-0.00000233,-
 0.00000316,0.00000157,0.00000070,-0.00000020,-0.00000240,0.00000037,-0
 .00000050,-0.00000191\\\@
 The archive entry for this job was punched.


 IT IS UNWORTHY OF EXCELLENT MEN TO LOSE HOURS LIKE SLAVES IN THE LABOR
 OF CALCULATION WHICH COULD BE SAFELY RELEGATED TO ANYONE ELSE
 IF A MACHINE WERE USED.
    -- G.W. VON LEIBNIZ
 Job cpu time:       0 days 22 hours 48 minutes 18.7 seconds.
 Elapsed time:       0 days  5 hours 42 minutes 56.4 seconds.
 File lengths (MBytes):  RWF=   1521 Int=      0 D2E=      0 Chk=     50 Scr=      1
 Normal termination of Gaussian 16 at Sun Feb 25 04:05:57 2024.
