 Entering Gaussian System, Link 0=/opt/software/gaussian/g16.c01/g16
 Initial command:
 /opt/software/gaussian/g16.c01/l1.exe "/scratch/arhender/25005950/Gau-12946.inp" -scrdir="/scratch/arhender/25005950/"
 Entering Link 1 = /opt/software/gaussian/g16.c01/l1.exe PID=     12947.
  
 Copyright (c) 1988-2019, Gaussian, Inc.  All Rights Reserved.
  
 This is part of the Gaussian(R) 16 program.  It is based on
 the Gaussian(R) 09 system (copyright 2009, Gaussian, Inc.),
 the Gaussian(R) 03 system (copyright 2003, Gaussian, Inc.),
 the Gaussian(R) 98 system (copyright 1998, Gaussian, Inc.),
 the Gaussian(R) 94 system (copyright 1995, Gaussian, Inc.),
 the Gaussian 92(TM) system (copyright 1992, Gaussian, Inc.),
 the Gaussian 90(TM) system (copyright 1990, Gaussian, Inc.),
 the Gaussian 88(TM) system (copyright 1988, Gaussian, Inc.),
 the Gaussian 86(TM) system (copyright 1986, Carnegie Mellon
 University), and the Gaussian 82(TM) system (copyright 1983,
 Carnegie Mellon University). Gaussian is a federally registered
 trademark of Gaussian, Inc.
  
 This software contains proprietary and confidential information,
 including trade secrets, belonging to Gaussian, Inc.
  
 This software is provided under written license and may be
 used, copied, transmitted, or stored only in accord with that
 written license.
  
 The following legend is applicable only to US Government
 contracts under FAR:
  
                    RESTRICTED RIGHTS LEGEND
  
 Use, reproduction and disclosure by the US Government is
 subject to restrictions as set forth in subparagraphs (a)
 and (c) of the Commercial Computer Software - Restricted
 Rights clause in FAR 52.227-19.
  
 Gaussian, Inc.
 340 Quinnipiac St., Bldg. 40, Wallingford CT 06492
  
  
 ---------------------------------------------------------------
 Warning -- This program may not be used in any manner that
 competes with the business of Gaussian, Inc. or will provide
 assistance to any competitor of Gaussian, Inc.  The licensee
 of this program is prohibited from giving any competitor of
 Gaussian, Inc. access to this program.  By using this program,
 the user acknowledges that Gaussian, Inc. is engaged in the
 business of creating and licensing software in the field of
 computational chemistry and represents and warrants to the
 licensee that it is not a competitor of Gaussian, Inc. and that
 it will not use this program in any manner prohibited above.
 ---------------------------------------------------------------
  

 Cite this work as:
 Gaussian 16, Revision C.01,
 M. J. Frisch, G. W. Trucks, H. B. Schlegel, G. E. Scuseria, 
 M. A. Robb, J. R. Cheeseman, G. Scalmani, V. Barone, 
 G. A. Petersson, H. Nakatsuji, X. Li, M. Caricato, A. V. Marenich, 
 J. Bloino, B. G. Janesko, R. Gomperts, B. Mennucci, H. P. Hratchian, 
 J. V. Ortiz, A. F. Izmaylov, J. L. Sonnenberg, D. Williams-Young, 
 F. Ding, F. Lipparini, F. Egidi, J. Goings, B. Peng, A. Petrone, 
 T. Henderson, D. Ranasinghe, V. G. Zakrzewski, J. Gao, N. Rega, 
 G. Zheng, W. Liang, M. Hada, M. Ehara, K. Toyota, R. Fukuda, 
 J. Hasegawa, M. Ishida, T. Nakajima, Y. Honda, O. Kitao, H. Nakai, 
 T. Vreven, K. Throssell, J. A. Montgomery, Jr., J. E. Peralta, 
 F. Ogliaro, M. J. Bearpark, J. J. Heyd, E. N. Brothers, K. N. Kudin, 
 V. N. Staroverov, T. A. Keith, R. Kobayashi, J. Normand, 
 K. Raghavachari, A. P. Rendell, J. C. Burant, S. S. Iyengar, 
 J. Tomasi, M. Cossi, J. M. Millam, M. Klene, C. Adamo, R. Cammi, 
 J. W. Ochterski, R. L. Martin, K. Morokuma, O. Farkas, 
 J. B. Foresman, and D. J. Fox, Gaussian, Inc., Wallingford CT, 2019.
 
 ******************************************
 Gaussian 16:  ES64L-G16RevC.01  3-Jul-2019
                11-Feb-2024 
 ******************************************
 %chk=PmonoL_HbiL_mannitol_IRC_forward.chk
 %mem=1600MB
 %nprocs=4
 Will use up to    4 processors via shared memory.
 ----------------------------------------------------------------------
 # irc=(forward,calcfc,maxpoints=50,maxcycle=50) wb97xd/def2tzvpp geom=
 connectivity
 ----------------------------------------------------------------------
 1/6=50,10=4,18=10,22=1,26=3,38=1,42=50,44=3,57=2,172=1/1,23;
 2/12=2,17=6,18=5,29=1,40=1/2;
 3/5=44,7=202,11=2,25=1,30=1,71=2,74=-58,140=1/1,2,3;
 4//1;
 5/5=2,38=5/2;
 8/6=4,10=90,11=11/1;
 11/6=1,8=1,9=11,15=111,16=1/1,2,10;
 10/6=1,13=1/2;
 6/7=2,8=2,9=2,10=2,28=1/1;
 7/10=1,25=1/1,2,3,16;
 1/6=50,10=4,18=10,22=1,26=3,42=50,44=3/23(2);
 2/29=1/2;
 99/5=20/99;
 2/29=1/2;
 3/5=44,7=202,11=2,25=1,30=1,71=2,74=-58,140=1/1,2,3;
 4/5=5,16=3,69=1/1;
 5/5=2,38=5/2;
 8/6=4,10=90,11=11/1;
 11/6=1,8=1,9=11,15=111,16=1/1,2,10;
 10/6=1,13=1/2;
 7/10=1,25=1/1,2,3,16;
 1/6=50,18=10,22=1,26=3,42=50,44=3/23(-8);
 2/29=1/2;
 6/7=2,8=2,9=2,10=2,19=2,28=1/1;
 99/5=20,9=1/99;
 -----------------------------------------------------------
 Title card here i was getting weird stuff and got rid of it
 -----------------------------------------------------------
 Symbolic Z-matrix:
 Charge = -2 Multiplicity = 1
 Si                   -2.06978  -0.54968   0.01426 
 O                    -1.85984  -1.33376   1.54518 
 O                    -2.01508   0.79597  -1.11053 
 O                    -2.76933  -1.80206  -0.92029 
 O                    -0.40502  -0.97962  -0.54583 
 O                    -0.48762   0.87921   1.40333 
 O                    -3.57835   0.15804   0.58207 
 C                     0.72413   0.60463   0.87443 
 H                     1.5525    0.63395   1.62904 
 C                     0.69653  -0.83437   0.28779 
 H                    -3.72752  -0.26405   1.42439 
 H                    -1.30395  -0.6765    1.99275 
 H                    -2.03983  -2.28626  -1.29934 
 H                    -2.87966   1.19265  -1.00154 
 C                     1.15007   1.63702  -0.20785 
 H                     0.87257   1.26001  -1.1977 
 O                     2.59651   1.7801   -0.14708 
 H                     2.88868   2.08807  -1.00282 
 C                     0.48072   2.99893  -0.03714 
 H                     0.26067   3.14986   1.02618 
 H                     1.19034   3.77283  -0.36521 
 O                    -0.67379   3.13388  -0.82123 
 H                    -1.15089   2.27026  -0.80281 
 C                     1.91589  -1.33979  -0.50309 
 H                     2.18738  -0.61734  -1.28639 
 O                     1.53894  -2.56491  -1.12052 
 H                     0.58033  -2.43388  -1.21237 
 C                     3.15956  -1.60882   0.34268 
 H                     2.84651  -1.9613    1.33526 
 H                     3.71359  -2.42172  -0.13606 
 O                     4.04186  -0.51075   0.46247 
 H                     3.52068   0.30375   0.37987 
 H                     0.59784  -1.50945   1.15561 
 
 IRC-IRC-IRC-IRC-IRC-IRC-IRC-IRC-IRC-IRC-IRC-IRC-IRC-IRC-IRC-IRC-IRC-IRC
 ------------------------------------------------------------------------
 INPUT DATA FOR L123
 ------------------------------------------------------------------------
 GENERAL PARAMETERS:
 Rxn path following direction = Forward
 Maximum points per path      =  50
 Step size                    =   0.100 bohr
 Integration scheme           = HPC                                 
    Redo corrector integration= Yes                                 
    DWI Weight Power          =  2
    DWI will use Hessian update vectors when possible.
    Max correction cycles     =  50
 Initial Hessian              = CalcFC
 Hessian evaluation           = All updating
 Hessian updating method      = Bofill                              
 ------------------------------------------------------------------------
 IRC-IRC-IRC-IRC-IRC-IRC-IRC-IRC-IRC-IRC-IRC-IRC-IRC-IRC-IRC-IRC-IRC-IRC
                          Input orientation:                          
 ---------------------------------------------------------------------
 Center     Atomic      Atomic             Coordinates (Angstroms)
 Number     Number       Type             X           Y           Z
 ---------------------------------------------------------------------
      1         14           0       -2.069777   -0.549675    0.014259
      2          8           0       -1.859835   -1.333764    1.545177
      3          8           0       -2.015081    0.795974   -1.110531
      4          8           0       -2.769331   -1.802057   -0.920288
      5          8           0       -0.405015   -0.979618   -0.545826
      6          8           0       -0.487617    0.879207    1.403334
      7          8           0       -3.578352    0.158039    0.582067
      8          6           0        0.724127    0.604634    0.874429
      9          1           0        1.552501    0.633950    1.629042
     10          6           0        0.696528   -0.834367    0.287790
     11          1           0       -3.727520   -0.264047    1.424386
     12          1           0       -1.303949   -0.676502    1.992754
     13          1           0       -2.039827   -2.286263   -1.299340
     14          1           0       -2.879661    1.192650   -1.001542
     15          6           0        1.150072    1.637017   -0.207848
     16          1           0        0.872568    1.260007   -1.197698
     17          8           0        2.596513    1.780096   -0.147081
     18          1           0        2.888678    2.088074   -1.002824
     19          6           0        0.480718    2.998931   -0.037137
     20          1           0        0.260669    3.149864    1.026180
     21          1           0        1.190340    3.772831   -0.365205
     22          8           0       -0.673793    3.133884   -0.821228
     23          1           0       -1.150888    2.270263   -0.802813
     24          6           0        1.915885   -1.339785   -0.503092
     25          1           0        2.187378   -0.617335   -1.286388
     26          8           0        1.538935   -2.564906   -1.120519
     27          1           0        0.580334   -2.433876   -1.212367
     28          6           0        3.159558   -1.608820    0.342681
     29          1           0        2.846506   -1.961295    1.335258
     30          1           0        3.713592   -2.421716   -0.136064
     31          8           0        4.041865   -0.510746    0.462468
     32          1           0        3.520681    0.303750    0.379869
     33          1           0        0.597835   -1.509447    1.155607
 ---------------------------------------------------------------------
                    Distance matrix (angstroms):
                    1          2          3          4          5
     1  Si   0.000000
     2  O    1.732796   0.000000
     3  O    1.754684   3.407737   0.000000
     4  O    1.712079   2.669269   2.711983   0.000000
     5  O    1.808308   2.571811   2.462505   2.531130   0.000000
     6  O    2.544497   2.607747   2.942718   4.218366   2.694676
     7  O    1.760416   2.471105   2.390746   2.598762   3.554782
     8  C    3.142964   3.299113   3.388206   4.606237   2.408722
     9  H    4.138767   3.939920   4.501017   5.577763   3.341485
    10  C    2.794336   2.892302   3.459210   3.795794   1.389032
    11  H    2.195029   2.155721   3.237576   2.963292   3.928462
    12  H    2.125328   0.970220   3.507745   3.449642   2.710046
    13  H    2.177654   3.005150   3.088114   0.954103   2.224346
    14  H    2.173352   3.729422   0.957460   2.997840   3.324199
    15  C    3.898510   4.578010   3.397114   5.262748   3.062565
    16  H    3.660763   4.660154   2.925994   4.766196   2.659525
    17  O    5.218058   5.693760   4.812851   6.497842   4.096851
    18  H    5.707754   6.383546   5.072275   6.866804   4.524157
    19  C    4.370386   5.172442   3.497743   5.864491   4.107571
    20  H    4.487934   4.986864   3.909651   6.123002   4.468440
    21  H    5.427376   6.247435   4.437557   6.860502   5.016329
    22  O    4.026837   5.192923   2.710825   5.363264   4.131463
    23  H    3.076364   4.359435   1.736389   4.383714   3.344263
    24  C    4.096026   4.295521   4.514747   4.726415   2.349069
    25  H    4.451924   4.991088   4.437232   5.109458   2.720328
    26  O    4.286220   4.491468   4.891487   4.379862   2.573393
    27  H    3.475329   3.843009   4.144693   3.421222   1.878844
    28  C    5.345614   5.168748   5.888272   6.064994   3.727133
    29  H    5.282759   4.752632   6.100774   6.053963   3.882596
    30  H    6.080665   5.922271   6.642350   6.559518   4.382976
    31  O    6.128179   6.056375   6.392843   7.069080   4.583802
    32  H    5.667030   5.743635   5.753976   6.759370   4.232615
    33  H    3.056140   2.494548   4.156643   3.966455   2.044823
                    6          7          8          9         10
     6  O    0.000000
     7  O    3.278293   0.000000
     8  C    1.350353   4.335464   0.000000
     9  H    2.067166   5.258165   1.120939   0.000000
    10  C    2.362832   4.398416   1.554230   2.165087   0.000000
    11  H    3.435760   0.953891   4.568831   5.359749   4.603185
    12  H    1.853117   2.803463   2.646706   3.163681   2.633198
    13  H    4.442297   3.446935   4.552142   5.477945   3.480607
    14  H    3.406398   2.016533   4.105157   5.184224   4.308167
    15  C    2.419134   5.016905   1.555174   2.131257   2.561074
    16  H    2.959811   4.918596   2.178361   2.974007   2.573726
    17  O    3.567527   6.425861   2.435369   2.357589   3.261054
    18  H    4.318602   6.932488   3.226446   3.290374   3.874515
    19  C    2.739682   4.993008   2.573492   3.085127   3.853093
    20  H    2.420343   4.887365   2.591528   2.891729   4.075450
    21  H    3.783693   6.058421   3.433878   3.736409   4.679372
    22  O    3.172839   4.388776   3.350603   4.148479   4.342202
    23  H    2.691106   3.503136   3.017141   3.987449   3.773737
    24  C    3.786186   5.797214   2.664323   2.928084   1.538757
    25  H    4.077970   6.110317   2.881569   3.235508   2.178939
    26  O    4.726379   6.041511   3.832716   4.218169   2.384900
    27  H    4.354185   5.218495   3.688894   4.293049   2.195997
    28  C    4.540611   6.969830   3.333685   3.044236   2.582500
    29  H    4.380578   6.807178   3.361673   2.914799   2.643778
    30  H    5.560215   7.768095   4.372275   4.137996   3.435405
    31  O    4.830466   7.650443   3.524368   2.977945   3.365490
    32  H    4.176731   7.103407   2.855842   2.354400   3.046248
    33  H    2.635383   4.533210   2.136434   2.393675   1.103893
                   11         12         13         14         15
    11  H    0.000000
    12  H    2.523263   0.000000
    13  H    3.788977   3.737744   0.000000
    14  H    2.953973   3.865541   3.591217   0.000000
    15  C    5.483533   4.027063   5.172904   4.131121   0.000000
    16  H    5.509889   4.320449   4.590033   3.757956   1.094965
    17  O    6.829453   5.082064   6.273645   5.573480   1.454770
    18  H    7.429529   5.847605   6.596431   5.837424   1.964228
    19  C    5.521987   4.562269   5.989957   3.935083   1.527084
    20  H    5.264884   4.245394   6.344431   4.219480   2.145360
    21  H    6.609415   5.619432   6.929589   4.860778   2.141981
    22  O    5.090576   4.778560   5.610048   2.943935   2.437894
    23  H    4.245253   4.064732   4.668906   2.046802   2.459553
    24  C    6.059736   4.127532   4.144573   5.446002   3.087878
    25  H    6.516067   4.790160   4.544750   5.388141   2.705800
    26  O    6.285383   4.619581   3.594045   5.801497   4.317446
    27  H    5.497111   4.112382   2.625757   5.016742   4.231528
    28  C    7.100024   4.849212   5.494430   6.791711   3.857016
    29  H    6.790170   4.394232   5.560842   6.942405   4.266956
    30  H    7.903207   5.723055   5.871404   7.568598   4.801052
    31  O    7.832592   5.563001   6.575972   7.276840   3.663970
    32  H    7.345055   5.180670   6.359808   6.607785   2.782589
    33  H    4.509097   2.238614   3.686118   4.903835   3.473357
                   16         17         18         19         20
    16  H    0.000000
    17  O    2.084772   0.000000
    18  H    2.188235   0.955252   0.000000
    19  C    2.127041   2.444225   2.749633   0.000000
    20  H    2.981881   2.951097   3.485783   1.096287   0.000000
    21  H    2.666141   2.448651   2.475746   1.100051   1.785589
    22  O    2.458531   3.603071   3.717243   1.402108   2.070360
    23  H    2.295850   3.835787   4.048616   1.944056   2.472126
    24  C    2.886158   3.213045   3.598093   4.593612   5.023481
    25  H    2.293688   2.685719   2.809176   4.189355   4.822029
    26  O    3.883293   4.576581   4.846223   5.766266   6.237057
    27  H    3.705454   4.791385   5.081377   5.559360   6.024237
    28  C    3.979103   3.470106   3.943448   5.343390   5.613894
    29  H    4.548525   4.032100   4.676088   5.664297   5.736378
    30  H    4.770070   4.347782   4.665829   6.312264   6.657026
    31  O    3.992012   2.776427   3.198560   5.024859   5.292946
    32  H    3.227328   1.819714   2.344159   4.084026   4.375587
    33  H    3.644640   4.063595   4.780057   4.664957   4.673287
                   21         22         23         24         25
    21  H    0.000000
    22  O    2.022672   0.000000
    23  H    2.816125   0.986813   0.000000
    24  C    5.165682   5.178934   4.746301   0.000000
    25  H    4.595239   4.740709   4.440280   1.099634   0.000000
    26  O    6.392099   6.120617   5.542106   1.422754   2.059375
    27  H    6.293886   5.720645   5.029293   1.866495   2.426498
    28  C    5.774174   6.208261   5.910955   1.527886   2.140571
    29  H    6.206018   6.557727   6.201338   2.152176   3.018892
    30  H    6.692662   7.112193   6.791346   2.130032   2.628377
    31  O    5.212031   6.096608   6.024917   2.477782   2.551270
    32  H    4.245014   5.200568   5.204754   2.460934   2.324329
    33  H    5.528688   5.204367   4.602135   2.125400   3.047269
                   26         27         28         29         30
    26  O    0.000000
    27  H    0.971865   0.000000
    28  C    2.383584   3.122705   0.000000
    29  H    2.846916   3.442276   1.098840   0.000000
    30  H    2.391399   3.312987   1.094052   1.768789   0.000000
    31  O    3.604175   4.299500   1.413712   2.072375   2.029239
    32  H    3.795743   4.321510   1.946719   2.549060   2.780569
    33  H    2.679629   2.542081   2.689451   2.300644   3.494079
                   31         32         33
    31  O    0.000000
    32  H    0.970494   0.000000
    33  H    3.652285   3.525972   0.000000
 Symmetry turned off by external request.
 Stoichiometry    C6H16O10Si(2-)
 Framework group  C1[X(C6H16O10Si)]
 Deg. of freedom    93
 Full point group                 C1      NOp   1
 Rotational constants (GHZ):           0.5637350           0.3484072           0.2556564
 Standard basis: def2TZVPP (5D, 7F)
   762 basis functions,  1157 primitive gaussians,   864 cartesian basis functions
    74 alpha electrons       74 beta electrons
       nuclear repulsion energy      1688.6954399477 Hartrees.
 NAtoms=   33 NActive=   33 NUniq=   33 SFac= 1.00D+00 NAtFMM=   60 NAOKFM=F Big=F
 Integral buffers will be    131072 words long.
 Raffenetti 2 integral format.
 Two-electron integral symmetry is turned off.
 Nuclear repulsion after empirical dispersion term =     1688.6674725452 Hartrees.
 One-electron integrals computed using PRISM.
   1 Symmetry operations used in ECPInt.
 ECPInt:  NShTT=   41041 NPrTT=  113485 LenC2=   37111 LenP2D=   76001.
 LDataN:  DoStor=T MaxTD1= 6 Len=  172
 NBasis=   762 RedAO= T EigKep=  4.37D-05  NBF=   762
 NBsUse=   762 1.00D-06 EigRej= -1.00D+00 NBFU=   762
 ExpMin= 7.01D-02 ExpMax= 4.48D+04 ExpMxC= 1.53D+03 IAcc=3 IRadAn=         5 AccDes= 0.00D+00
 Harris functional with IExCor= 4639 and IRadAn=       5 diagonalized for initial guess.
 HarFok:  IExCor= 4639 AccDes= 0.00D+00 IRadAn=         5 IDoV= 1 UseB2=F ITyADJ=14
 ICtDFT=  3500011 ScaDFX=  1.000000  1.000000  1.000000  1.000000
 FoFCou: FMM=F IPFlag=           0 FMFlag=      100000 FMFlg1=           0
         NFxFlg=           0 DoJE=T BraDBF=F KetDBF=T FulRan=T
         wScrn=  0.000000 ICntrl=       500 IOpCl=  0 I1Cent=   200000004 NGrid=           0
         NMat0=    1 NMatS0=      1 NMatT0=    0 NMatD0=    1 NMtDS0=    0 NMtDT0=    0
 Symmetry not used in FoFCou.
 Requested convergence on RMS density matrix=1.00D-08 within 128 cycles.
 Requested convergence on MAX density matrix=1.00D-06.
 Requested convergence on             energy=1.00D-06.
 No special actions if energy rises.
 Integral accuracy reduced to 1.0D-05 until final iterations.
 Initial convergence to 1.0D-05 achieved.  Increase integral accuracy.
 SCF Done:  E(RwB97XD) =  -1280.31147535     A.U. after   15 cycles
            NFock= 15  Conv=0.48D-08     -V/T= 2.0037
 DoSCS=F DFT=T ScalE2(SS,OS)=  1.000000  1.000000
 Range of M.O.s used for correlation:     1   762
 NBasis=   762 NAE=    74 NBE=    74 NFC=     0 NFV=     0
 NROrb=    762 NOA=    74 NOB=    74 NVA=   688 NVB=   688

 **** Warning!!: The largest alpha MO coefficient is  0.25974800D+02

   1 Symmetry operations used in ECPInt.
 ECPInt:  NShTT=   41041 NPrTT=  113485 LenC2=   37111 LenP2D=   76001.
 LDataN:  DoStor=T MaxTD1= 7 Len=  274
 Number of processors reduced to   2 by ecpmxn.
 Symmetrizing basis deriv contribution to polar:
 IMax=3 JMax=2 DiffMx= 0.00D+00
 G2DrvN: will do    34 centers at a time, making    1 passes.
 Calling FoFCou, ICntrl=  3107 FMM=F I1Cent=   0 AccDes= 0.00D+00.
 End of G2Drv F.D. properties file   721 does not exist.
 End of G2Drv F.D. properties file   722 does not exist.
 End of G2Drv F.D. properties file   788 does not exist.
          IDoAtm=111111111111111111111111111111111
          Differentiating once with respect to nuclear coordinates.
 CalDSu exits because no D1Ps are significant.
          There are   102 degrees of freedom in the 1st order CPHF.  IDoFFX=6 NUNeed=     0.
     96 vectors produced by pass  0 Test12= 5.09D-14 1.00D-09 XBig12= 8.47D-02 3.75D-02.
 AX will form    48 AO Fock derivatives at one time.
     96 vectors produced by pass  1 Test12= 5.09D-14 1.00D-09 XBig12= 2.92D-02 1.53D-02.
     96 vectors produced by pass  2 Test12= 5.09D-14 1.00D-09 XBig12= 6.55D-04 3.02D-03.
     96 vectors produced by pass  3 Test12= 5.09D-14 1.00D-09 XBig12= 8.73D-06 3.52D-04.
     96 vectors produced by pass  4 Test12= 5.09D-14 1.00D-09 XBig12= 1.07D-07 3.45D-05.
     96 vectors produced by pass  5 Test12= 5.09D-14 1.00D-09 XBig12= 1.15D-09 2.94D-06.
     96 vectors produced by pass  6 Test12= 5.09D-14 1.00D-09 XBig12= 9.27D-12 2.73D-07.
     49 vectors produced by pass  7 Test12= 5.09D-14 1.00D-09 XBig12= 6.77D-14 1.77D-08.
      7 vectors produced by pass  8 Test12= 5.09D-14 1.00D-09 XBig12= 2.05D-15 2.34D-09.
      3 vectors produced by pass  9 Test12= 5.09D-14 1.00D-09 XBig12= 1.54D-15 1.85D-09.
 InvSVY:  IOpt=1 It=  1 EMax= 4.72D-16
 Solved reduced A of dimension   731 with   102 vectors.
 End of Minotr F.D. properties file   721 does not exist.
 End of Minotr F.D. properties file   722 does not exist.
 End of Minotr F.D. properties file   788 does not exist.

 **********************************************************************

            Population analysis using the SCF Density.

 **********************************************************************

 Alpha  occ. eigenvalues --  -66.01133 -19.03881 -19.01190 -18.99985 -18.97110
 Alpha  occ. eigenvalues --  -18.93574 -18.92910 -18.92773 -18.91541 -18.90517
 Alpha  occ. eigenvalues --  -18.87356 -10.09766 -10.08553 -10.07593 -10.07191
 Alpha  occ. eigenvalues --  -10.05252 -10.04689  -5.11858  -3.46571  -3.46354
 Alpha  occ. eigenvalues --   -3.46270  -0.90954  -0.89276  -0.88123  -0.85228
 Alpha  occ. eigenvalues --   -0.82527  -0.79503  -0.77619  -0.76916  -0.74968
 Alpha  occ. eigenvalues --   -0.74079  -0.60758  -0.58182  -0.52908  -0.48209
 Alpha  occ. eigenvalues --   -0.44752  -0.40039  -0.37875  -0.36168  -0.34755
 Alpha  occ. eigenvalues --   -0.34190  -0.32673  -0.31029  -0.30166  -0.28734
 Alpha  occ. eigenvalues --   -0.27951  -0.27677  -0.26693  -0.26203  -0.24865
 Alpha  occ. eigenvalues --   -0.24377  -0.22748  -0.22234  -0.21231  -0.20395
 Alpha  occ. eigenvalues --   -0.19205  -0.17918  -0.16633  -0.15733  -0.14658
 Alpha  occ. eigenvalues --   -0.14451  -0.13701  -0.13412  -0.12905  -0.11494
 Alpha  occ. eigenvalues --   -0.11243  -0.09361  -0.09246  -0.08983  -0.07355
 Alpha  occ. eigenvalues --   -0.06585  -0.05606  -0.01511  -0.01076
 Alpha virt. eigenvalues --    0.30715   0.34622   0.35465   0.36505   0.38051
 Alpha virt. eigenvalues --    0.39074   0.39525   0.40313   0.41601   0.41992
 Alpha virt. eigenvalues --    0.43048   0.43392   0.44283   0.45147   0.46862
 Alpha virt. eigenvalues --    0.47117   0.47731   0.48444   0.49826   0.50451
 Alpha virt. eigenvalues --    0.50952   0.52078   0.52763   0.53340   0.54270
 Alpha virt. eigenvalues --    0.55209   0.55399   0.56099   0.57799   0.58318
 Alpha virt. eigenvalues --    0.59408   0.60248   0.61035   0.62636   0.63081
 Alpha virt. eigenvalues --    0.63733   0.64138   0.64729   0.65308   0.65637
 Alpha virt. eigenvalues --    0.66499   0.66744   0.67403   0.68419   0.68536
 Alpha virt. eigenvalues --    0.68717   0.70091   0.70767   0.71273   0.71665
 Alpha virt. eigenvalues --    0.71687   0.72271   0.72387   0.73075   0.73199
 Alpha virt. eigenvalues --    0.74372   0.74737   0.75267   0.76031   0.76551
 Alpha virt. eigenvalues --    0.76624   0.77325   0.77603   0.78445   0.79753
 Alpha virt. eigenvalues --    0.80198   0.80558   0.81183   0.81659   0.81983
 Alpha virt. eigenvalues --    0.83171   0.83420   0.83638   0.84318   0.85177
 Alpha virt. eigenvalues --    0.85564   0.86465   0.86811   0.87551   0.88155
 Alpha virt. eigenvalues --    0.89076   0.89827   0.90026   0.91070   0.92757
 Alpha virt. eigenvalues --    0.93127   0.94065   0.94808   0.95192   0.96125
 Alpha virt. eigenvalues --    0.96385   0.97348   0.98122   0.99467   0.99870
 Alpha virt. eigenvalues --    1.00456   1.01569   1.02310   1.03226   1.03740
 Alpha virt. eigenvalues --    1.04750   1.05365   1.06300   1.07516   1.08412
 Alpha virt. eigenvalues --    1.09429   1.10061   1.11600   1.12197   1.12851
 Alpha virt. eigenvalues --    1.13581   1.13901   1.14309   1.15084   1.15312
 Alpha virt. eigenvalues --    1.17218   1.17884   1.19035   1.19251   1.19901
 Alpha virt. eigenvalues --    1.21610   1.23472   1.24217   1.24734   1.25104
 Alpha virt. eigenvalues --    1.25816   1.27726   1.28804   1.29614   1.29927
 Alpha virt. eigenvalues --    1.30169   1.30967   1.32063   1.32134   1.33277
 Alpha virt. eigenvalues --    1.34014   1.35074   1.35602   1.35742   1.36470
 Alpha virt. eigenvalues --    1.37427   1.37616   1.38008   1.39615   1.41011
 Alpha virt. eigenvalues --    1.41569   1.42641   1.43430   1.44216   1.44720
 Alpha virt. eigenvalues --    1.44986   1.46306   1.46858   1.47342   1.48330
 Alpha virt. eigenvalues --    1.49297   1.49336   1.50260   1.50686   1.51626
 Alpha virt. eigenvalues --    1.52892   1.53963   1.55043   1.55784   1.57096
 Alpha virt. eigenvalues --    1.57866   1.58706   1.59491   1.59940   1.61251
 Alpha virt. eigenvalues --    1.61920   1.62756   1.63365   1.64690   1.66253
 Alpha virt. eigenvalues --    1.67191   1.68608   1.69025   1.69496   1.70484
 Alpha virt. eigenvalues --    1.72871   1.73064   1.73505   1.74082   1.74892
 Alpha virt. eigenvalues --    1.75103   1.76482   1.77975   1.78220   1.79096
 Alpha virt. eigenvalues --    1.79760   1.81536   1.82300   1.83111   1.83512
 Alpha virt. eigenvalues --    1.83922   1.84775   1.85559   1.86895   1.87932
 Alpha virt. eigenvalues --    1.89138   1.89735   1.91452   1.92920   1.93420
 Alpha virt. eigenvalues --    1.94590   1.96775   1.98517   1.99362   2.01357
 Alpha virt. eigenvalues --    2.02017   2.04111   2.06869   2.08358   2.08710
 Alpha virt. eigenvalues --    2.12314   2.12521   2.14685   2.15946   2.17505
 Alpha virt. eigenvalues --    2.18352   2.18775   2.19604   2.19810   2.22236
 Alpha virt. eigenvalues --    2.22763   2.24659   2.24853   2.25259   2.26301
 Alpha virt. eigenvalues --    2.27319   2.29169   2.29655   2.30178   2.30906
 Alpha virt. eigenvalues --    2.31970   2.32544   2.34537   2.34641   2.35183
 Alpha virt. eigenvalues --    2.36162   2.36369   2.36977   2.39222   2.39718
 Alpha virt. eigenvalues --    2.40274   2.40593   2.42799   2.43288   2.44107
 Alpha virt. eigenvalues --    2.44815   2.45213   2.46207   2.46839   2.47849
 Alpha virt. eigenvalues --    2.49729   2.52087   2.52414   2.53068   2.53916
 Alpha virt. eigenvalues --    2.54458   2.55306   2.56954   2.58728   2.59134
 Alpha virt. eigenvalues --    2.60837   2.61290   2.62336   2.64556   2.66460
 Alpha virt. eigenvalues --    2.68776   2.69023   2.69896   2.72720   2.74069
 Alpha virt. eigenvalues --    2.77184   2.77579   2.78040   2.79006   2.80314
 Alpha virt. eigenvalues --    2.81430   2.82899   2.83732   2.86560   2.87230
 Alpha virt. eigenvalues --    2.90164   2.92904   2.93777   2.94888   2.95389
 Alpha virt. eigenvalues --    2.97530   2.98564   2.99191   2.99610   3.01170
 Alpha virt. eigenvalues --    3.02157   3.03279   3.04006   3.05025   3.06751
 Alpha virt. eigenvalues --    3.08330   3.08640   3.10190   3.11175   3.12780
 Alpha virt. eigenvalues --    3.12830   3.15570   3.16343   3.17190   3.17855
 Alpha virt. eigenvalues --    3.19417   3.20348   3.22070   3.22619   3.24041
 Alpha virt. eigenvalues --    3.25380   3.26756   3.27661   3.29670   3.30156
 Alpha virt. eigenvalues --    3.31068   3.32727   3.33290   3.33448   3.34305
 Alpha virt. eigenvalues --    3.35822   3.36805   3.38295   3.39353   3.40275
 Alpha virt. eigenvalues --    3.40516   3.41591   3.41991   3.42544   3.43848
 Alpha virt. eigenvalues --    3.44442   3.45676   3.46634   3.47796   3.48356
 Alpha virt. eigenvalues --    3.49020   3.49251   3.50742   3.51898   3.52866
 Alpha virt. eigenvalues --    3.53570   3.54282   3.55577   3.56696   3.57164
 Alpha virt. eigenvalues --    3.58711   3.59398   3.60488   3.61425   3.62561
 Alpha virt. eigenvalues --    3.63496   3.65586   3.67008   3.67597   3.68791
 Alpha virt. eigenvalues --    3.69165   3.69766   3.69834   3.70829   3.71398
 Alpha virt. eigenvalues --    3.72812   3.73600   3.74150   3.75817   3.75949
 Alpha virt. eigenvalues --    3.77295   3.78298   3.78732   3.79497   3.80261
 Alpha virt. eigenvalues --    3.81414   3.82199   3.82944   3.83725   3.84555
 Alpha virt. eigenvalues --    3.86048   3.87274   3.87870   3.88439   3.90005
 Alpha virt. eigenvalues --    3.90820   3.91354   3.92052   3.93594   3.94471
 Alpha virt. eigenvalues --    3.95105   3.96419   3.96811   3.97549   3.98939
 Alpha virt. eigenvalues --    4.00305   4.01367   4.02511   4.02810   4.03216
 Alpha virt. eigenvalues --    4.03424   4.04316   4.04481   4.07188   4.07826
 Alpha virt. eigenvalues --    4.08346   4.09956   4.10325   4.10490   4.12601
 Alpha virt. eigenvalues --    4.12736   4.14372   4.15025   4.15850   4.17695
 Alpha virt. eigenvalues --    4.18259   4.19998   4.21170   4.21857   4.23568
 Alpha virt. eigenvalues --    4.23715   4.24319   4.25139   4.26695   4.27949
 Alpha virt. eigenvalues --    4.28663   4.29517   4.30040   4.30432   4.31753
 Alpha virt. eigenvalues --    4.32858   4.34356   4.35539   4.36223   4.36602
 Alpha virt. eigenvalues --    4.37115   4.38841   4.39198   4.40357   4.41716
 Alpha virt. eigenvalues --    4.43467   4.43888   4.44530   4.45210   4.46155
 Alpha virt. eigenvalues --    4.46306   4.47736   4.48455   4.48803   4.49837
 Alpha virt. eigenvalues --    4.50906   4.51858   4.52199   4.52972   4.54265
 Alpha virt. eigenvalues --    4.55028   4.55899   4.56458   4.57212   4.58324
 Alpha virt. eigenvalues --    4.60273   4.61341   4.62166   4.62374   4.63162
 Alpha virt. eigenvalues --    4.64424   4.65322   4.66466   4.67258   4.68110
 Alpha virt. eigenvalues --    4.68566   4.69892   4.70983   4.72150   4.73975
 Alpha virt. eigenvalues --    4.74246   4.76353   4.76594   4.78145   4.80028
 Alpha virt. eigenvalues --    4.81544   4.81936   4.82580   4.84809   4.85637
 Alpha virt. eigenvalues --    4.86151   4.87582   4.91520   4.93861   4.93991
 Alpha virt. eigenvalues --    4.96774   4.97666   4.98417   4.99047   5.02164
 Alpha virt. eigenvalues --    5.03094   5.04869   5.07446   5.08311   5.09351
 Alpha virt. eigenvalues --    5.10141   5.11571   5.12607   5.13234   5.15181
 Alpha virt. eigenvalues --    5.16370   5.17489   5.19112   5.20129   5.23125
 Alpha virt. eigenvalues --    5.26389   5.27511   5.28765   5.29949   5.31019
 Alpha virt. eigenvalues --    5.32082   5.32583   5.33477   5.33853   5.34901
 Alpha virt. eigenvalues --    5.36855   5.38484   5.39789   5.41320   5.42144
 Alpha virt. eigenvalues --    5.43562   5.44000   5.45973   5.47765   5.49766
 Alpha virt. eigenvalues --    5.50462   5.51436   5.53349   5.55930   5.56766
 Alpha virt. eigenvalues --    5.59355   5.60638   5.62120   5.63289   5.65405
 Alpha virt. eigenvalues --    5.68944   5.69261   5.69669   5.70998   5.73428
 Alpha virt. eigenvalues --    5.74311   5.75465   5.77245   5.78221   5.79222
 Alpha virt. eigenvalues --    5.81573   5.82154   5.83314   5.84639   5.86502
 Alpha virt. eigenvalues --    5.88026   5.89396   5.89848   5.90549   5.90807
 Alpha virt. eigenvalues --    5.92906   5.94001   5.94134   5.96066   5.97321
 Alpha virt. eigenvalues --    5.97996   5.98742   6.00053   6.01179   6.02152
 Alpha virt. eigenvalues --    6.02694   6.04908   6.06407   6.06884   6.07699
 Alpha virt. eigenvalues --    6.10323   6.11603   6.14523   6.18464   6.22603
 Alpha virt. eigenvalues --    6.23620   6.31225   6.32375   6.37098   6.39992
 Alpha virt. eigenvalues --    6.42162   6.42196   6.46287   6.46396   6.48125
 Alpha virt. eigenvalues --    6.50526   6.53039   6.61890   6.66747   6.76427
 Alpha virt. eigenvalues --    6.81341   6.82731   6.83665   6.84718   6.88553
 Alpha virt. eigenvalues --    6.88819   6.90082   6.90346   6.92446   6.93906
 Alpha virt. eigenvalues --    6.94670   6.96424   6.97571   6.97821   7.00015
 Alpha virt. eigenvalues --    7.01377   7.01957   7.02424   7.03229   7.03495
 Alpha virt. eigenvalues --    7.04412   7.04909   7.05423   7.06090   7.06839
 Alpha virt. eigenvalues --    7.07886   7.08278   7.10077   7.11129   7.12232
 Alpha virt. eigenvalues --    7.12857   7.14233   7.15986   7.17487   7.17802
 Alpha virt. eigenvalues --    7.19479   7.21344   7.23363   7.24500   7.25321
 Alpha virt. eigenvalues --    7.27508   7.29536   7.30254   7.31485   7.33456
 Alpha virt. eigenvalues --    7.33765   7.36504   7.41202   7.42776   7.45359
 Alpha virt. eigenvalues --    7.47837   7.49235   7.51481   7.54496   7.54994
 Alpha virt. eigenvalues --    7.55789   7.59019   7.64108   7.66479   7.67513
 Alpha virt. eigenvalues --    7.69878   7.70075   7.75890   7.76661   7.77349
 Alpha virt. eigenvalues --    7.79206   7.83269   7.84502   7.86341   7.88321
 Alpha virt. eigenvalues --    7.94944   7.96536   7.99360   8.02576   8.08415
 Alpha virt. eigenvalues --    8.10781  12.21333  23.38766  23.46546  23.60557
 Alpha virt. eigenvalues --   23.62870  23.68956  23.71307  44.23024  44.25758
 Alpha virt. eigenvalues --   44.34900  44.41100  44.44618  44.52066  44.52297
 Alpha virt. eigenvalues --   44.56536  44.71778  44.91397
          Condensed to atoms (all electrons):
               1          2          3          4          5          6
     1  Si  11.554538   0.338312   0.309440   0.451406   0.226536   0.101366
     2  O    0.338312   8.109989  -0.001224  -0.038484  -0.040165  -0.062882
     3  O    0.309440  -0.001224   7.966586  -0.044466  -0.045987  -0.017572
     4  O    0.451406  -0.038484  -0.044466   7.931227  -0.064222  -0.000177
     5  O    0.226536  -0.040165  -0.045987  -0.064222   8.292291  -0.004089
     6  O    0.101366  -0.062882  -0.017572  -0.000177  -0.004089   8.442698
     7  O    0.397488  -0.093780  -0.093134  -0.055410   0.005365  -0.007354
     8  C   -0.042468   0.008582  -0.004664  -0.002879  -0.088245   0.427882
     9  H    0.007588  -0.000314  -0.000497   0.000006   0.006463  -0.032260
    10  C   -0.059223  -0.013057   0.008795  -0.002962   0.237286  -0.125760
    11  H   -0.048631   0.027644   0.006928   0.001882   0.000080   0.001239
    12  H   -0.056775   0.313138  -0.001610   0.001123   0.009077   0.058305
    13  H   -0.040330   0.001281   0.000483   0.315244   0.010415  -0.000296
    14  H   -0.034454   0.000181   0.314509   0.000807   0.004150   0.002630
    15  C   -0.011391  -0.001627   0.009246   0.000591   0.001974  -0.147549
    16  H    0.001356   0.000177   0.002941  -0.000270   0.024896   0.009107
    17  O    0.000381   0.000002   0.000023  -0.000000   0.000607   0.002197
    18  H   -0.000037  -0.000002  -0.000001   0.000000   0.000221  -0.000748
    19  C    0.004758   0.000092  -0.007654   0.000004  -0.001514   0.014252
    20  H   -0.000779   0.000141   0.000644   0.000003   0.000076   0.023549
    21  H    0.000436   0.000002  -0.000560  -0.000000  -0.000015   0.002618
    22  O    0.001085   0.000003  -0.039353  -0.000008   0.000221  -0.006792
    23  H   -0.004960  -0.000451   0.079119  -0.000108  -0.000595   0.002047
    24  C    0.003717   0.004056  -0.001490  -0.000784  -0.012094   0.020267
    25  H    0.001365  -0.000148  -0.000120   0.000061   0.006123   0.000963
    26  O    0.000901  -0.000161  -0.000025   0.000041  -0.036777  -0.000431
    27  H   -0.003080   0.000459   0.000227   0.000082   0.058142  -0.000145
    28  C   -0.000970   0.000456   0.000000  -0.000021   0.005503  -0.002236
    29  H    0.000121  -0.000262  -0.000002   0.000004   0.000077   0.000083
    30  H   -0.000053   0.000004   0.000000  -0.000001  -0.000284   0.000025
    31  O    0.000010  -0.000001   0.000000   0.000000  -0.000057   0.000079
    32  H   -0.000010  -0.000002  -0.000002  -0.000000  -0.000086   0.000001
    33  H    0.009634   0.028260  -0.000233   0.000248  -0.053241   0.005216
               7          8          9         10         11         12
     1  Si   0.397488  -0.042468   0.007588  -0.059223  -0.048631  -0.056775
     2  O   -0.093780   0.008582  -0.000314  -0.013057   0.027644   0.313138
     3  O   -0.093134  -0.004664  -0.000497   0.008795   0.006928  -0.001610
     4  O   -0.055410  -0.002879   0.000006  -0.002962   0.001882   0.001123
     5  O    0.005365  -0.088245   0.006463   0.237286   0.000080   0.009077
     6  O   -0.007354   0.427882  -0.032260  -0.125760   0.001239   0.058305
     7  O    8.100993  -0.002571  -0.000087  -0.001428   0.308018   0.005440
     8  C   -0.002571   5.335765   0.375230   0.101227  -0.000325   0.000384
     9  H   -0.000087   0.375230   0.867764  -0.060509   0.000009  -0.005135
    10  C   -0.001428   0.101227  -0.060509   5.508289  -0.000068  -0.013079
    11  H    0.308018  -0.000325   0.000009  -0.000068   0.576511   0.002812
    12  H    0.005440   0.000384  -0.005135  -0.013079   0.002812   0.494405
    13  H    0.003769   0.000294  -0.000007  -0.000627  -0.000589  -0.000556
    14  H    0.008932  -0.000598   0.000065  -0.000235  -0.000541  -0.000280
    15  C    0.000653  -0.112688  -0.158483   0.034584   0.000052   0.008626
    16  H    0.000025  -0.012774   0.018539  -0.055429  -0.000015  -0.000236
    17  O   -0.000000  -0.055801  -0.003211   0.018282  -0.000000  -0.000053
    18  H    0.000000   0.011042  -0.000998  -0.004173   0.000000   0.000017
    19  C   -0.000246  -0.004059   0.011895  -0.002995  -0.000011  -0.000913
    20  H    0.000057   0.012394   0.001123  -0.000671  -0.000005  -0.000049
    21  H   -0.000005   0.018056   0.000339  -0.000558  -0.000001  -0.000017
    22  O   -0.000120   0.016585  -0.000502  -0.006637   0.000008   0.000099
    23  H    0.000145   0.000055  -0.000095   0.002214  -0.000061  -0.000227
    24  C    0.000125  -0.049000   0.001952  -0.015541  -0.000011   0.000388
    25  H   -0.000005  -0.023407   0.000267  -0.055119   0.000001  -0.000135
    26  O   -0.000000   0.013395  -0.000329  -0.019552  -0.000000  -0.000096
    27  H   -0.000016   0.005267  -0.000086  -0.028498  -0.000003  -0.000215
    28  C   -0.000003   0.014802   0.004260   0.016087  -0.000001  -0.000414
    29  H   -0.000000  -0.001876  -0.003202  -0.000675   0.000001  -0.000031
    30  H    0.000000   0.000749   0.000838   0.007708  -0.000000   0.000002
    31  O    0.000000   0.003050   0.004076  -0.001599   0.000000   0.000013
    32  H   -0.000000  -0.001435   0.005744   0.004586  -0.000000  -0.000016
    33  H    0.000493  -0.075800  -0.007333   0.322108  -0.000271   0.002659
              13         14         15         16         17         18
     1  Si  -0.040330  -0.034454  -0.011391   0.001356   0.000381  -0.000037
     2  O    0.001281   0.000181  -0.001627   0.000177   0.000002  -0.000002
     3  O    0.000483   0.314509   0.009246   0.002941   0.000023  -0.000001
     4  O    0.315244   0.000807   0.000591  -0.000270  -0.000000   0.000000
     5  O    0.010415   0.004150   0.001974   0.024896   0.000607   0.000221
     6  O   -0.000296   0.002630  -0.147549   0.009107   0.002197  -0.000748
     7  O    0.003769   0.008932   0.000653   0.000025  -0.000000   0.000000
     8  C    0.000294  -0.000598  -0.112688  -0.012774  -0.055801   0.011042
     9  H   -0.000007   0.000065  -0.158483   0.018539  -0.003211  -0.000998
    10  C   -0.000627  -0.000235   0.034584  -0.055429   0.018282  -0.004173
    11  H   -0.000589  -0.000541   0.000052  -0.000015  -0.000000   0.000000
    12  H   -0.000556  -0.000280   0.008626  -0.000236  -0.000053   0.000017
    13  H    0.581579  -0.000261   0.000004  -0.000076  -0.000000  -0.000001
    14  H   -0.000261   0.574762  -0.000431  -0.000146  -0.000007   0.000002
    15  C    0.000004  -0.000431   5.883440   0.344417   0.149568  -0.053668
    16  H   -0.000076  -0.000146   0.344417   0.659628  -0.054049  -0.009036
    17  O   -0.000000  -0.000007   0.149568  -0.054049   7.975243   0.314201
    18  H   -0.000001   0.000002  -0.053668  -0.009036   0.314201   0.594226
    19  C    0.000015   0.000705   0.185616  -0.020910  -0.018477   0.000419
    20  H    0.000000  -0.000292  -0.125979   0.014782   0.007175  -0.001070
    21  H    0.000001   0.000027  -0.017843  -0.007396   0.008310   0.003156
    22  O   -0.000002   0.001270  -0.106838   0.020190   0.004612   0.000478
    23  H   -0.000033  -0.002930   0.007223  -0.000068  -0.000419  -0.000176
    24  C   -0.000834   0.000053   0.029434   0.015338  -0.019676   0.000596
    25  H   -0.000030   0.000028  -0.002865  -0.009404   0.019407   0.003983
    26  O   -0.000273   0.000002  -0.002630  -0.000598   0.000278  -0.000043
    27  H    0.003637  -0.000036  -0.001542   0.000347   0.000057  -0.000015
    28  C    0.000060  -0.000003  -0.012673   0.001243   0.001561  -0.000208
    29  H   -0.000005   0.000000  -0.000231   0.000061  -0.000106   0.000195
    30  H   -0.000003   0.000000   0.000056  -0.000003  -0.000150  -0.000010
    31  O   -0.000000   0.000000  -0.002519  -0.000009  -0.027720   0.003184
    32  H    0.000000   0.000000  -0.004906   0.000531   0.052890  -0.006812
    33  H   -0.000345   0.000049   0.014196   0.000974  -0.000136   0.000267
              19         20         21         22         23         24
     1  Si   0.004758  -0.000779   0.000436   0.001085  -0.004960   0.003717
     2  O    0.000092   0.000141   0.000002   0.000003  -0.000451   0.004056
     3  O   -0.007654   0.000644  -0.000560  -0.039353   0.079119  -0.001490
     4  O    0.000004   0.000003  -0.000000  -0.000008  -0.000108  -0.000784
     5  O   -0.001514   0.000076  -0.000015   0.000221  -0.000595  -0.012094
     6  O    0.014252   0.023549   0.002618  -0.006792   0.002047   0.020267
     7  O   -0.000246   0.000057  -0.000005  -0.000120   0.000145   0.000125
     8  C   -0.004059   0.012394   0.018056   0.016585   0.000055  -0.049000
     9  H    0.011895   0.001123   0.000339  -0.000502  -0.000095   0.001952
    10  C   -0.002995  -0.000671  -0.000558  -0.006637   0.002214  -0.015541
    11  H   -0.000011  -0.000005  -0.000001   0.000008  -0.000061  -0.000011
    12  H   -0.000913  -0.000049  -0.000017   0.000099  -0.000227   0.000388
    13  H    0.000015   0.000000   0.000001  -0.000002  -0.000033  -0.000834
    14  H    0.000705  -0.000292   0.000027   0.001270  -0.002930   0.000053
    15  C    0.185616  -0.125979  -0.017843  -0.106838   0.007223   0.029434
    16  H   -0.020910   0.014782  -0.007396   0.020190  -0.000068   0.015338
    17  O   -0.018477   0.007175   0.008310   0.004612  -0.000419  -0.019676
    18  H    0.000419  -0.001070   0.003156   0.000478  -0.000176   0.000596
    19  C    4.689715   0.454684   0.302142   0.337734  -0.052820   0.001874
    20  H    0.454684   0.703623  -0.071603  -0.045231  -0.000224  -0.000205
    21  H    0.302142  -0.071603   0.824260  -0.047110   0.007967   0.000040
    22  O    0.337734  -0.045231  -0.047110   8.007280   0.344905   0.000926
    23  H   -0.052820  -0.000224   0.007967   0.344905   0.378670  -0.000466
    24  C    0.001874  -0.000205   0.000040   0.000926  -0.000466   5.266355
    25  H   -0.000658  -0.000334  -0.000068  -0.000427  -0.000020   0.381420
    26  O   -0.000026   0.000005  -0.000000  -0.000000   0.000004   0.234507
    27  H    0.000062   0.000003  -0.000002   0.000001  -0.000022  -0.060255
    28  C    0.000245   0.000061  -0.000003  -0.000024  -0.000008   0.198662
    29  H   -0.000084  -0.000011   0.000000   0.000000  -0.000001  -0.064383
    30  H    0.000015  -0.000002  -0.000000  -0.000000   0.000000  -0.006197
    31  O   -0.000094   0.000014   0.000000   0.000001   0.000000  -0.056623
    32  H    0.000153  -0.000158   0.000164  -0.000045   0.000015  -0.004457
    33  H   -0.001122  -0.000411   0.000060   0.000024  -0.000010  -0.003663
              25         26         27         28         29         30
     1  Si   0.001365   0.000901  -0.003080  -0.000970   0.000121  -0.000053
     2  O   -0.000148  -0.000161   0.000459   0.000456  -0.000262   0.000004
     3  O   -0.000120  -0.000025   0.000227   0.000000  -0.000002   0.000000
     4  O    0.000061   0.000041   0.000082  -0.000021   0.000004  -0.000001
     5  O    0.006123  -0.036777   0.058142   0.005503   0.000077  -0.000284
     6  O    0.000963  -0.000431  -0.000145  -0.002236   0.000083   0.000025
     7  O   -0.000005  -0.000000  -0.000016  -0.000003  -0.000000   0.000000
     8  C   -0.023407   0.013395   0.005267   0.014802  -0.001876   0.000749
     9  H    0.000267  -0.000329  -0.000086   0.004260  -0.003202   0.000838
    10  C   -0.055119  -0.019552  -0.028498   0.016087  -0.000675   0.007708
    11  H    0.000001  -0.000000  -0.000003  -0.000001   0.000001  -0.000000
    12  H   -0.000135  -0.000096  -0.000215  -0.000414  -0.000031   0.000002
    13  H   -0.000030  -0.000273   0.003637   0.000060  -0.000005  -0.000003
    14  H    0.000028   0.000002  -0.000036  -0.000003   0.000000   0.000000
    15  C   -0.002865  -0.002630  -0.001542  -0.012673  -0.000231   0.000056
    16  H   -0.009404  -0.000598   0.000347   0.001243   0.000061  -0.000003
    17  O    0.019407   0.000278   0.000057   0.001561  -0.000106  -0.000150
    18  H    0.003983  -0.000043  -0.000015  -0.000208   0.000195  -0.000010
    19  C   -0.000658  -0.000026   0.000062   0.000245  -0.000084   0.000015
    20  H   -0.000334   0.000005   0.000003   0.000061  -0.000011  -0.000002
    21  H   -0.000068  -0.000000  -0.000002  -0.000003   0.000000  -0.000000
    22  O   -0.000427  -0.000000   0.000001  -0.000024   0.000000  -0.000000
    23  H   -0.000020   0.000004  -0.000022  -0.000008  -0.000001   0.000000
    24  C    0.381420   0.234507  -0.060255   0.198662  -0.064383  -0.006197
    25  H    0.762580  -0.036766   0.001074  -0.083582   0.018601  -0.009771
    26  O   -0.036766   7.982299   0.342486  -0.051580   0.008098   0.004176
    27  H    0.001074   0.342486   0.458548   0.013207  -0.000757  -0.000994
    28  C   -0.083582  -0.051580   0.013207   4.869643   0.386251   0.367043
    29  H    0.018601   0.008098  -0.000757   0.386251   0.725791  -0.059801
    30  H   -0.009771   0.004176  -0.000994   0.367043  -0.059801   0.695769
    31  O    0.012863   0.004004  -0.000534   0.276053  -0.047031  -0.038463
    32  H    0.003248  -0.000245  -0.000005  -0.050112   0.000393   0.006988
    33  H    0.013159   0.004423   0.003436  -0.020300   0.015443  -0.000926
              31         32         33
     1  Si   0.000010  -0.000010   0.009634
     2  O   -0.000001  -0.000002   0.028260
     3  O    0.000000  -0.000002  -0.000233
     4  O    0.000000  -0.000000   0.000248
     5  O   -0.000057  -0.000086  -0.053241
     6  O    0.000079   0.000001   0.005216
     7  O    0.000000  -0.000000   0.000493
     8  C    0.003050  -0.001435  -0.075800
     9  H    0.004076   0.005744  -0.007333
    10  C   -0.001599   0.004586   0.322108
    11  H    0.000000  -0.000000  -0.000271
    12  H    0.000013  -0.000016   0.002659
    13  H   -0.000000   0.000000  -0.000345
    14  H    0.000000   0.000000   0.000049
    15  C   -0.002519  -0.004906   0.014196
    16  H   -0.000009   0.000531   0.000974
    17  O   -0.027720   0.052890  -0.000136
    18  H    0.003184  -0.006812   0.000267
    19  C   -0.000094   0.000153  -0.001122
    20  H    0.000014  -0.000158  -0.000411
    21  H    0.000000   0.000164   0.000060
    22  O    0.000001  -0.000045   0.000024
    23  H    0.000000   0.000015  -0.000010
    24  C   -0.056623  -0.004457  -0.003663
    25  H    0.012863   0.003248   0.013159
    26  O    0.004004  -0.000245   0.004423
    27  H   -0.000534  -0.000005   0.003436
    28  C    0.276053  -0.050112  -0.020300
    29  H   -0.047031   0.000393   0.015443
    30  H   -0.038463   0.006988  -0.000926
    31  O    7.967321   0.362443   0.000695
    32  H    0.362443   0.409444  -0.000482
    33  H    0.000695  -0.000482   0.749573
 Mulliken charges:
               1
     1  Si   0.892723
     2  O   -0.580220
     3  O   -0.440347
     4  O   -0.492938
     5  O   -0.542131
     6  O   -0.706233
     7  O   -0.577344
     8  C    0.133831
     9  H   -0.033111
    10  C    0.207229
    11  H    0.125348
    12  H    0.183347
    13  H    0.127488
    14  H    0.132042
    15  C    0.094182
    16  H    0.055866
    17  O   -0.374990
    18  H    0.145010
    19  C    0.107202
    20  H    0.028688
    21  H   -0.022396
    22  O   -0.482332
    23  H    0.241329
    24  C    0.135967
    25  H   -0.002284
    26  O   -0.445088
    27  H    0.209168
    28  C    0.067000
    29  H    0.023338
    30  H    0.033284
    31  O   -0.459157
    32  H    0.222175
    33  H   -0.006644
 Sum of Mulliken charges =  -2.00000
 Mulliken charges with hydrogens summed into heavy atoms:
               1
     1  Si   0.892723
     2  O   -0.396873
     3  O   -0.308305
     4  O   -0.365450
     5  O   -0.542131
     6  O   -0.706233
     7  O   -0.451996
     8  C    0.100720
    10  C    0.200585
    15  C    0.150048
    17  O   -0.229980
    19  C    0.113494
    22  O   -0.241004
    24  C    0.133683
    26  O   -0.235920
    28  C    0.123622
    31  O   -0.236982
 APT charges:
               1
     1  Si  -0.141278
     2  O   -0.372908
     3  O   -0.787492
     4  O   -0.240652
     5  O   -0.467671
     6  O   -0.549233
     7  O   -0.573297
     8  C   -0.473934
     9  H    0.249991
    10  C   -0.074446
    11  H    0.414897
    12  H    0.156092
    13  H    0.218066
    14  H    0.610332
    15  C    0.272449
    16  H    0.075274
    17  O   -0.805346
    18  H    0.573884
    19  C   -0.787351
    20  H    0.265368
    21  H    0.500327
    22  O   -0.118456
    23  H   -0.016183
    24  C   -0.128614
    25  H    0.117574
    26  O   -0.193418
    27  H    0.090117
    28  C   -0.725757
    29  H    0.217949
    30  H    0.610714
    31  O   -0.055740
    32  H   -0.073830
    33  H    0.212574
 Sum of APT charges =  -2.00000
 APT charges with hydrogens summed into heavy atoms:
               1
     1  Si  -0.141278
     2  O   -0.216815
     3  O   -0.177160
     4  O   -0.022586
     5  O   -0.467671
     6  O   -0.549233
     7  O   -0.158401
     8  C   -0.223943
    10  C    0.138127
    15  C    0.347723
    17  O   -0.231462
    19  C   -0.021656
    22  O   -0.134640
    24  C   -0.011041
    26  O   -0.103301
    28  C    0.102906
    31  O   -0.129571
 Electronic spatial extent (au):  <R**2>=           4496.4911
 Charge=             -2.0000 electrons
 Dipole moment (field-independent basis, Debye):
    X=              6.4566    Y=              0.9776    Z=             -1.6840  Tot=              6.7438
 Quadrupole moment (field-independent basis, Debye-Ang):
   XX=           -181.6517   YY=           -150.7425   ZZ=           -127.2960
   XY=              2.7243   XZ=             -4.6609   YZ=             -2.0914
 Traceless Quadrupole moment (field-independent basis, Debye-Ang):
   XX=            -28.4217   YY=              2.4876   ZZ=             25.9341
   XY=              2.7243   XZ=             -4.6609   YZ=             -2.0914
 Octapole moment (field-independent basis, Debye-Ang**2):
  XXX=            -17.1985  YYY=            -28.5873  ZZZ=            -10.1949  XYY=             12.5339
  XXY=             53.6313  XXZ=            -15.6675  XZZ=              7.6010  YZZ=              1.7141
  YYZ=              7.3946  XYZ=            -16.4964
 Hexadecapole moment (field-independent basis, Debye-Ang**3):
 XXXX=          -4170.9691 YYYY=          -2256.8501 ZZZZ=           -616.9594 XXXY=              2.3723
 XXXZ=           -132.1799 YYYX=             76.0307 YYYZ=             36.5114 ZZZX=            -14.7711
 ZZZY=              0.9840 XXYY=           -962.8726 XXZZ=           -653.5001 YYZZ=           -463.6070
 XXYZ=            -60.3630 YYXZ=              7.7287 ZZXY=             17.9226
 N-N= 1.688667472545D+03 E-N=-6.444078383151D+03  KE= 1.275630843895D+03
  Exact polarizability:       0.000       0.000       0.000       0.000       0.000       0.000
 Approx polarizability:     162.266       1.265     153.849       0.596      -1.226     148.139
   1 Symmetry operations used in ECPInt.
 ECPInt:  NShTT=   41041 NPrTT=  113485 LenC2=   37111 LenP2D=   76001.
 LDataN:  DoStor=T MaxTD1= 8 Len=  415
 Calling FoFJK, ICntrl=    100127 FMM=F ISym2X=0 I1Cent= 0 IOpClX= 0 NMat=1 NMatS=1 NMatT=0.
 -------------------------------------------------------------------
 Center     Atomic                   Forces (Hartrees/Bohr)
 Number     Number              X              Y              Z
 -------------------------------------------------------------------
      1       14          -0.000007716   -0.000002309    0.000008156
      2        8          -0.000001562   -0.000002373   -0.000000001
      3        8           0.000007464    0.000002906    0.000000787
      4        8           0.000002216    0.000000462   -0.000000712
      5        8          -0.000000845    0.000011661   -0.000008813
      6        8           0.000002178    0.000002178    0.000003179
      7        8          -0.000000174   -0.000007033   -0.000000167
      8        6           0.000001843   -0.000001993    0.000007382
      9        1           0.000000999   -0.000000655   -0.000000835
     10        6           0.000005378   -0.000006609   -0.000008573
     11        1           0.000003364    0.000000871    0.000003626
     12        1          -0.000004726   -0.000002183   -0.000001087
     13        1           0.000000891    0.000001408   -0.000002934
     14        1           0.000002008    0.000002715    0.000003558
     15        6          -0.000003149   -0.000002164   -0.000000216
     16        1          -0.000000163    0.000001415    0.000000435
     17        8           0.000000250   -0.000000327    0.000003003
     18        1          -0.000001139    0.000003303    0.000002173
     19        6           0.000000257   -0.000001109    0.000003852
     20        1           0.000000488   -0.000000615    0.000003680
     21        1          -0.000001309    0.000000887    0.000002798
     22        8          -0.000006660   -0.000004671    0.000004037
     23        1          -0.000003222    0.000001753    0.000003307
     24        6           0.000001513    0.000000245    0.000004214
     25        1           0.000000301    0.000001036   -0.000002297
     26        8           0.000001849    0.000001694   -0.000004976
     27        1          -0.000001067    0.000000895   -0.000003486
     28        6          -0.000000812   -0.000000580   -0.000004272
     29        1           0.000001935   -0.000001175   -0.000003746
     30        1          -0.000000563    0.000001093   -0.000005124
     31        8          -0.000001055    0.000004419    0.000000831
     32        1           0.000001104   -0.000004961   -0.000005123
     33        1           0.000000123   -0.000000185   -0.000002657
 -------------------------------------------------------------------
 Cartesian Forces:  Max     0.000011661 RMS     0.000003483
 IRC-IRC-IRC-IRC-IRC-IRC-IRC-IRC-IRC-IRC-IRC-IRC-IRC-IRC-IRC-IRC-IRC-IRC
          ******** Start new reaction path calculation ********
 Supplied step size of   0.1000 bohr.
    Integration on MW PES will use step size of   0.3143 sqrt(amu)*bohr.
 Point Number:   0          Path Number:   1
 Calculating another point on the path.
 IRC-IRC-IRC-IRC-IRC-IRC-IRC-IRC-IRC-IRC-IRC-IRC-IRC-IRC-IRC-IRC-IRC-IRC
                          Input orientation:                          
 ---------------------------------------------------------------------
 Center     Atomic      Atomic             Coordinates (Angstroms)
 Number     Number       Type             X           Y           Z
 ---------------------------------------------------------------------
      1         14           0       -2.030124   -0.534439    0.022064
      2          8           0       -1.828939   -1.338216    1.547797
      3          8           0       -1.979694    0.805763   -1.112509
      4          8           0       -2.737874   -1.784728   -0.913563
      5          8           0       -0.370208   -0.974663   -0.543872
      6          8           0       -0.471797    0.880146    1.386864
      7          8           0       -3.534845    0.177084    0.593031
      8          6           0        0.748962    0.612505    0.872508
      9          1           0        1.567583    0.648538    1.636798
     10          6           0        0.730572   -0.827313    0.289199
     11          1           0       -3.691540   -0.256284    1.428392
     12          1           0       -1.277856   -0.686963    2.006864
     13          1           0       -2.010786   -2.273239   -1.291672
     14          1           0       -2.847101    1.197630   -1.009036
     15          6           0        1.179538    1.645259   -0.206536
     16          1           0        0.904348    1.269669   -1.197549
     17          8           0        2.625908    1.787455   -0.141407
     18          1           0        2.920734    2.095088   -0.996346
     19          6           0        0.510749    3.007462   -0.035619
     20          1           0        0.291004    3.158856    1.027868
     21          1           0        1.221250    3.780999   -0.362859
     22          8           0       -0.643063    3.143378   -0.819737
     23          1           0       -1.120982    2.279516   -0.802687
     24          6           0        1.950534   -1.331347   -0.501207
     25          1           0        2.221661   -0.608637   -1.284413
     26          8           0        1.574183   -2.556610   -1.118480
     27          1           0        0.615362   -2.426307   -1.210064
     28          6           0        3.193951   -1.599978    0.344787
     29          1           0        2.880737   -1.954920    1.336450
     30          1           0        3.749693   -2.411070   -0.135042
     31          8           0        4.074101   -0.500469    0.467347
     32          1           0        3.551573    0.313125    0.384266
     33          1           0        0.632992   -1.501681    1.157886
 ---------------------------------------------------------------------
                    Distance matrix (angstroms):
                    1          2          3          4          5
     1  Si   0.000000
     2  O    1.736201   0.000000
     3  O    1.756685   3.420029   0.000000
     4  O    1.714506   2.661547   2.706484   0.000000
     5  O    1.808149   2.575878   2.466517   2.529569   0.000000
     6  O    2.508408   2.605544   2.919957   4.186719   2.679249
     7  O    1.759674   2.473424   2.392196   2.598787   3.554433
     8  C    3.124428   3.302559   3.379822   4.592907   2.403700
     9  H    4.117074   3.935921   4.490721   5.564358   3.338433
    10  C    2.789011   2.897617   3.460819   3.793863   1.388322
    11  H    2.194409   2.157341   3.242613   2.954721   3.929013
    12  H    2.128050   0.968795   3.528639   3.444652   2.722655
    13  H    2.179382   2.994984   3.084367   0.954079   2.221936
    14  H    2.175013   3.742267   0.957425   2.985884   3.327196
    15  C    3.886550   4.585819   3.392091   5.254599   3.062596
    16  H    3.654229   4.669993   2.922351   4.761907   2.662482
    17  O    5.205435   5.698148   4.808152   6.490521   4.094873
    18  H    5.697593   6.389024   5.068535   6.861462   4.523096
    19  C    4.359407   5.183267   3.494206   5.855716   4.109954
    20  H    4.476573   4.998813   3.908239   6.114104   4.471414
    21  H    5.416882   6.257844   4.433965   6.852390   5.018149
    22  O    4.019815   5.205401   2.708643   5.355676   4.136280
    23  H    3.070033   4.371952   1.733588   4.375467   3.349676
    24  C    4.093228   4.299172   4.515265   4.728294   2.348380
    25  H    4.448602   4.996104   4.436378   5.110548   2.720323
    26  O    4.287312   4.491632   4.892405   4.385388   2.571651
    27  H    3.477917   3.842441   4.146095   3.426912   1.876814
    28  C    5.341393   5.171573   5.888794   6.066640   3.726119
    29  H    5.278440   4.754581   6.102668   6.054776   3.881386
    30  H    6.078874   5.924871   6.642991   6.564063   4.382236
    31  O    6.120539   6.059296   6.391448   7.068184   4.582500
    32  H    5.657288   5.747229   5.751343   6.755923   4.230864
    33  H    3.052513   2.497970   4.159942   3.966580   2.044539
                    6          7          8          9         10
     6  O    0.000000
     7  O    3.241409   0.000000
     8  C    1.351460   4.314939   0.000000
     9  H    2.067651   5.229387   1.120526   0.000000
    10  C    2.359232   4.392598   1.553597   2.166736   0.000000
    11  H    3.414666   0.954038   4.558712   5.340460   4.602056
    12  H    1.868144   2.799910   2.661461   3.164971   2.646480
    13  H    4.414395   3.446585   4.541740   5.469684   3.479210
    14  H    3.388687   2.020179   4.100518   5.176038   4.311097
    15  C    2.418931   5.002025   1.554449   2.131175   2.561432
    16  H    2.953759   4.909822   2.177416   2.976441   2.576422
    17  O    3.571358   6.409959   2.435458   2.362032   3.258026
    18  H    4.320305   6.919491   3.226028   3.294991   3.871674
    19  C    2.741227   4.977255   2.572402   3.078700   3.854780
    20  H    2.429663   4.870028   2.591865   2.881344   4.077793
    21  H    3.787200   6.043374   3.433444   3.732410   4.680009
    22  O    3.165539   4.376896   3.347647   4.140742   4.345458
    23  H    2.678397   3.492132   3.013618   3.979894   3.777944
    24  C    3.784600   5.793281   2.666351   2.938989   1.538537
    25  H    4.075157   6.105695   2.883112   3.246810   2.178857
    26  O    4.719542   6.041897   3.832533   4.226650   2.384052
    27  H    4.342647   5.220442   3.686372   4.297211   2.194959
    28  C    4.546938   6.963926   3.339392   3.061076   2.582311
    29  H    4.390857   6.801309   3.369181   2.931310   2.644133
    30  H    5.565005   7.764865   4.377391   4.154783   3.435601
    31  O    4.839091   7.640087   3.529790   2.995073   3.364186
    32  H    4.185000   7.090798   2.860532   2.370138   3.044287
    33  H    2.635543   4.528596   2.136509   2.392960   1.104043
                   11         12         13         14         15
    11  H    0.000000
    12  H    2.519124   0.000000
    13  H    3.780449   3.732800   0.000000
    14  H    2.961080   3.887142   3.581374   0.000000
    15  C    5.478709   4.046873   5.168202   4.130157   0.000000
    16  H    5.508746   4.342658   4.589015   3.756873   1.094945
    17  O    6.822851   5.096782   6.269870   5.572657   1.454802
    18  H    7.424990   5.864063   6.594648   5.837252   1.964156
    19  C    5.518568   4.584716   5.985116   3.936774   1.527117
    20  H    5.261583   4.267327   6.339256   4.224108   2.145745
    21  H    6.606341   5.641259   6.925500   4.862388   2.141860
    22  O    5.089695   4.802515   5.606526   2.946109   2.437673
    23  H    4.244498   4.088788   4.664595   2.047571   2.459689
    24  C    6.059052   4.138617   4.147777   5.447102   3.088923
    25  H    6.515321   4.804712   4.548028   5.388022   2.707007
    26  O    6.285372   4.625741   3.600319   5.801212   4.317764
    27  H    5.497260   4.118036   2.631871   5.016173   4.231195
    28  C    7.098570   4.857278   5.497323   6.793655   3.859194
    29  H    6.788862   4.398985   5.561956   6.946079   4.270383
    30  H    7.903125   5.730319   5.877066   7.569959   4.802563
    31  O    7.828692   5.572104   6.577439   7.277794   3.665619
    32  H    7.340104   5.191955   6.359079   6.608077   2.783914
    33  H    4.508411   2.244074   3.685811   4.908450   3.473267
                   16         17         18         19         20
    16  H    0.000000
    17  O    2.085020   0.000000
    18  H    2.188061   0.955239   0.000000
    19  C    2.127187   2.444075   2.750173   0.000000
    20  H    2.982901   2.949529   3.484899   1.096454   0.000000
    21  H    2.665317   2.448739   2.476257   1.100117   1.785089
    22  O    2.459270   3.603447   3.718972   1.401641   2.070354
    23  H    2.297318   3.836483   4.050554   1.944439   2.473434
    24  C    2.888716   3.211309   3.595400   4.595107   5.025338
    25  H    2.295842   2.685356   2.807457   4.190808   4.823700
    26  O    3.885272   4.575117   4.844214   5.767354   6.238582
    27  H    3.707278   4.789584   5.079707   5.560226   6.025578
    28  C    3.981953   3.468970   3.940405   5.345351   5.616066
    29  H    4.552498   4.031671   4.673981   5.667861   5.740439
    30  H    4.772080   4.346326   4.662025   6.313567   6.658751
    31  O    3.994071   2.775327   3.195241   5.025538   5.293077
    32  H    3.228764   1.818471   2.340820   4.084405   4.375353
    33  H    3.647202   4.059346   4.776109   4.666022   4.674875
                   21         22         23         24         25
    21  H    0.000000
    22  O    2.022612   0.000000
    23  H    2.816727   0.987398   0.000000
    24  C    5.165953   5.181831   4.750098   0.000000
    25  H    4.595540   4.743436   4.443731   1.099650   0.000000
    26  O    6.392246   6.123340   5.545427   1.422651   2.059456
    27  H    6.294085   5.723407   5.032457   1.866575   2.426859
    28  C    5.774705   6.211136   5.914881   1.527728   2.140653
    29  H    6.208246   6.561932   6.206457   2.152000   3.019235
    30  H    6.692283   7.114563   6.794912   2.129989   2.627680
    31  O    5.211427   6.098020   6.027453   2.477496   2.551842
    32  H    4.244379   5.201435   5.206565   2.460016   2.324393
    33  H    5.528600   5.207291   4.606270   2.125446   3.047330
                   26         27         28         29         30
    26  O    0.000000
    27  H    0.971959   0.000000
    28  C    2.383263   3.122419   0.000000
    29  H    2.845311   3.440765   1.098855   0.000000
    30  H    2.391897   3.313598   1.094055   1.768741   0.000000
    31  O    3.604462   4.299469   1.413720   2.072410   2.029411
    32  H    3.795220   4.320615   1.946642   2.549648   2.780319
    33  H    2.679657   2.542132   2.688736   2.299928   3.494635
                   31         32         33
    31  O    0.000000
    32  H    0.970502   0.000000
    33  H    3.649726   3.522801   0.000000
 Symmetry turned off by external request.
 Stoichiometry    C6H16O10Si(2-)
 Framework group  C1[X(C6H16O10Si)]
 Deg. of freedom    93
 Full point group                 C1      NOp   1
 Rotational constants (GHZ):           0.5641765           0.3490192           0.2559283
 Standard basis: def2TZVPP (5D, 7F)
   762 basis functions,  1157 primitive gaussians,   864 cartesian basis functions
    74 alpha electrons       74 beta electrons
       nuclear repulsion energy      1689.6188812761 Hartrees.
 NAtoms=   33 NActive=   33 NUniq=   33 SFac= 1.00D+00 NAtFMM=   60 NAOKFM=F Big=F
 Integral buffers will be    131072 words long.
 Raffenetti 2 integral format.
 Two-electron integral symmetry is turned off.
 Nuclear repulsion after empirical dispersion term =     1689.5909097356 Hartrees.
 One-electron integrals computed using PRISM.
   1 Symmetry operations used in ECPInt.
 ECPInt:  NShTT=   41041 NPrTT=  113485 LenC2=   37119 LenP2D=   76020.
 LDataN:  DoStor=T MaxTD1= 6 Len=  172
 NBasis=   762 RedAO= T EigKep=  4.38D-05  NBF=   762
 NBsUse=   762 1.00D-06 EigRej= -1.00D+00 NBFU=   762
 Initial guess from the checkpoint file:  "PmonoL_HbiL_mannitol_IRC_forward.chk"
 B after Tr=     0.061286    0.016759    0.004405
         Rot=    1.000000   -0.000005    0.000015   -0.000018 Ang=  -0.00 deg.
 ExpMin= 7.01D-02 ExpMax= 4.48D+04 ExpMxC= 1.53D+03 IAcc=3 IRadAn=         5 AccDes= 0.00D+00
 Harris functional with IExCor= 4639 and IRadAn=       5 diagonalized for initial guess.
 HarFok:  IExCor= 4639 AccDes= 0.00D+00 IRadAn=         5 IDoV= 1 UseB2=F ITyADJ=14
 ICtDFT=  3500011 ScaDFX=  1.000000  1.000000  1.000000  1.000000
 FoFCou: FMM=F IPFlag=           0 FMFlag=      100000 FMFlg1=           0
         NFxFlg=           0 DoJE=T BraDBF=F KetDBF=T FulRan=T
         wScrn=  0.000000 ICntrl=       500 IOpCl=  0 I1Cent=   200000004 NGrid=           0
         NMat0=    1 NMatS0=      1 NMatT0=    0 NMatD0=    1 NMtDS0=    0 NMtDT0=    0
 Symmetry not used in FoFCou.
 Requested convergence on RMS density matrix=1.00D-08 within 128 cycles.
 Requested convergence on MAX density matrix=1.00D-06.
 Requested convergence on             energy=1.00D-06.
 No special actions if energy rises.
 Integral accuracy reduced to 1.0D-05 until final iterations.
 Initial convergence to 1.0D-05 achieved.  Increase integral accuracy.
 SCF Done:  E(RwB97XD) =  -1280.31151278     A.U. after   12 cycles
            NFock= 12  Conv=0.37D-08     -V/T= 2.0037
 DoSCS=F DFT=T ScalE2(SS,OS)=  1.000000  1.000000
 Range of M.O.s used for correlation:     1   762
 NBasis=   762 NAE=    74 NBE=    74 NFC=     0 NFV=     0
 NROrb=    762 NOA=    74 NOB=    74 NVA=   688 NVB=   688

 **** Warning!!: The largest alpha MO coefficient is  0.26140085D+02

 Symmetrizing basis deriv contribution to polar:
 IMax=3 JMax=2 DiffMx= 0.00D+00
   1 Symmetry operations used in ECPInt.
 ECPInt:  NShTT=   41041 NPrTT=  113485 LenC2=   37119 LenP2D=   76020.
 LDataN:  DoStor=T MaxTD1= 7 Len=  274
 Calling FoFJK, ICntrl=      2127 FMM=F ISym2X=0 I1Cent= 0 IOpClX= 0 NMat=1 NMatS=1 NMatT=0.
 -------------------------------------------------------------------
 Center     Atomic                   Forces (Hartrees/Bohr)
 Number     Number              X              Y              Z
 -------------------------------------------------------------------
      1       14           0.000272568    0.000179779    0.000225834
      2        8           0.000009423   -0.000217655   -0.000023016
      3        8           0.000043695    0.000048214   -0.000098676
      4        8          -0.000015115    0.000196716    0.000096396
      5        8           0.000049761   -0.000062554    0.000018800
      6        8          -0.000283885   -0.000199671   -0.000458523
      7        8           0.000233641    0.000161427    0.000316052
      8        6          -0.000144025   -0.000016786   -0.000031362
      9        1          -0.000081830    0.000008033   -0.000028072
     10        6           0.000017271   -0.000025369   -0.000003265
     11        1           0.000029159    0.000054398   -0.000104673
     12        1          -0.000055620   -0.000055655    0.000003024
     13        1          -0.000013981    0.000014649    0.000011399
     14        1           0.000028675   -0.000026448   -0.000016067
     15        6          -0.000063478   -0.000016401   -0.000007255
     16        1          -0.000000225    0.000002468    0.000001523
     17        8          -0.000077279   -0.000040096    0.000085146
     18        1          -0.000004569   -0.000001036    0.000012319
     19        6          -0.000045191   -0.000007001   -0.000009587
     20        1          -0.000001987   -0.000001670    0.000005057
     21        1          -0.000003749   -0.000000935    0.000004694
     22        8          -0.000041982    0.000015111   -0.000007953
     23        1          -0.000008239   -0.000008269    0.000005344
     24        6           0.000042799   -0.000005996   -0.000005742
     25        1           0.000002838    0.000000460   -0.000002532
     26        8           0.000065585   -0.000009668   -0.000013161
     27        1           0.000000669    0.000000432   -0.000003525
     28        6           0.000033890   -0.000004966   -0.000010072
     29        1           0.000005287   -0.000004178   -0.000007737
     30        1           0.000003956    0.000005369   -0.000006269
     31        8          -0.000010974    0.000029731    0.000059408
     32        1           0.000004943   -0.000010300   -0.000003645
     33        1           0.000007968   -0.000002133   -0.000003864
 -------------------------------------------------------------------
 Cartesian Forces:  Max     0.000458523 RMS     0.000094073
 IRC-IRC-IRC-IRC-IRC-IRC-IRC-IRC-IRC-IRC-IRC-IRC-IRC-IRC-IRC-IRC-IRC-IRC
 Pt  1 Step number   1 out of a maximum of  50
 Modified Bulirsch-Stoer Extrapolation Cycles:
    EPS =    0.000010000000000
      PEZero:  N= 2 I= 1 D=  8.19D-04 Err=  8.69D-03
      PEZero:  N= 3 I= 2 D=  8.19D-04 Err=  1.34D-02
      PEZero:  N= 3 I= 1 D=  1.64D-03 Err=  1.14D-02
      PEZero:  N= 4 I= 3 D=  4.09D-04 Err=  2.23D-02
      PEZero:  N= 4 I= 2 D=  1.23D-03 Err=  1.64D-02
      PEZero:  N= 4 I= 1 D=  2.05D-03 Err=  1.29D-02
      PEZero:  N= 5 I= 4 D=  4.09D-04 Err=  3.36D-02
      PEZero:  N= 5 I= 3 D=  8.19D-04 Err=  2.81D-02
      PEZero:  N= 5 I= 2 D=  1.64D-03 Err=  1.99D-02
      PEZero:  N= 5 I= 1 D=  2.46D-03 Err=  1.56D-02
      PEZero:  N= 6 I= 5 D=  2.05D-04 Err=  5.21D-02
      PEZero:  N= 6 I= 4 D=  6.14D-04 Err=  3.58D-02
      PEZero:  N= 6 I= 3 D=  1.02D-03 Err=  2.61D-02
      PEZero:  N= 6 I= 2 D=  1.84D-03 Err=  1.65D-02
      PEZero:  N= 6 I= 1 D=  2.66D-03 Err=  1.17D-02
      PEZero:  N= 7 I= 6 D=  2.05D-04 Err=  1.69D-02
      PEZero:  N= 7 I= 5 D=  4.09D-04 Err=  2.67D-02
      PEZero:  N= 8 I= 7 D=  1.02D-04 Err=  2.14D-04
      PEZero:  N= 8 I= 6 D=  3.07D-04 Err=  1.66D-02
      PEZero:  N= 9 I= 8 D=  1.02D-04 Err=  9.86D-05
      PEZero:  N= 9 I= 7 D=  2.05D-04 Err=  6.57D-05
      PEZero:  N= 9 I= 6 D=  4.09D-04 Err=  1.80D-02
      PEZero:  N=10 I= 9 D=  5.12D-05 Err=  7.17D-05
      PEZero:  N=10 I= 8 D=  1.53D-04 Err=  3.03D-06
      PEZero:  N=10 I= 7 D=  2.56D-04 Err=  3.58D-05
 Maximum DWI energy   std dev =  0.000000460 at pt     2
 Maximum DWI gradient std dev =  0.334590922 at pt    13
 CORRECTOR INTEGRATION CONVERGENCE:
   Recorrection delta-x convergence threshold:    0.010000
   Delta-x Convergence Met
 Point Number:   1          Path Number:   1
   CHANGE IN THE REACTION COORDINATE =    0.31423
   NET REACTION COORDINATE UP TO THIS POINT =    0.31423
  # OF POINTS ALONG THE PATH =   1
  # OF STEPS =   1

 Calculating another point on the path.
 IRC-IRC-IRC-IRC-IRC-IRC-IRC-IRC-IRC-IRC-IRC-IRC-IRC-IRC-IRC-IRC-IRC-IRC
                          Input orientation:                          
 ---------------------------------------------------------------------
 Center     Atomic      Atomic             Coordinates (Angstroms)
 Number     Number       Type             X           Y           Z
 ---------------------------------------------------------------------
      1         14           0       -2.022924   -0.528305    0.027482
      2          8           0       -1.830263   -1.351268    1.547902
      3          8           0       -1.976861    0.806564   -1.116868
      4          8           0       -2.738987   -1.776264   -0.909264
      5          8           0       -0.367884   -0.978504   -0.544131
      6          8           0       -0.488352    0.872071    1.367996
      7          8           0       -3.523695    0.187088    0.601906
      8          6           0        0.741263    0.611323    0.868364
      9          1           0        1.549798    0.654055    1.642341
     10          6           0        0.732184   -0.829215    0.288328
     11          1           0       -3.687611   -0.257283    1.430232
     12          1           0       -1.284725   -0.705698    2.018667
     13          1           0       -2.014438   -2.268561   -1.287273
     14          1           0       -2.847310    1.193094   -1.019237
     15          6           0        1.176430    1.644587   -0.207223
     16          1           0        0.903600    1.270655   -1.199490
     17          8           0        2.622690    1.785867   -0.137555
     18          1           0        2.920107    2.094687   -0.991154
     19          6           0        0.508090    3.006972   -0.035721
     20          1           0        0.288799    3.158504    1.028027
     21          1           0        1.219319    3.780357   -0.361987
     22          8           0       -0.645127    3.143854   -0.819682
     23          1           0       -1.123877    2.279724   -0.803898
     24          6           0        1.952683   -1.331658   -0.501943
     25          1           0        2.223266   -0.608454   -1.284914
     26          8           0        1.576819   -2.556897   -1.119333
     27          1           0        0.617787   -2.427172   -1.210638
     28          6           0        3.196060   -1.600328    0.343768
     29          1           0        2.882992   -1.958757    1.334231
     30          1           0        3.753535   -2.409054   -0.138085
     31          8           0        4.073849   -0.499331    0.469969
[...]
     22        8          -0.000668084    0.000154124   -0.000374109
     23        1          -0.000051362    0.000007042   -0.000043032
     24        6           0.000517163   -0.000132961   -0.000101500
     25        1           0.000023960   -0.000000910   -0.000000340
     26        8           0.000881314   -0.000149143   -0.000193198
     27        1           0.000027689   -0.000006074   -0.000008829
     28        6           0.000473664   -0.000076751   -0.000073454
     29        1           0.000028335   -0.000033322   -0.000017517
     30        1           0.000042328    0.000022966   -0.000017369
     31        8          -0.000000823    0.000291436    0.000659515
     32        1          -0.000017422   -0.000002617    0.000034709
     33        1           0.000029498   -0.000022797   -0.000006032
 -------------------------------------------------------------------
 Cartesian Forces:  Max     0.004392232 RMS     0.001199649
 IRC-IRC-IRC-IRC-IRC-IRC-IRC-IRC-IRC-IRC-IRC-IRC-IRC-IRC-IRC-IRC-IRC-IRC
 Error in corrector energy =          -0.0000391554
 Magnitude of corrector gradient =     0.0107080303
 Magnitude of analytic gradient =      0.0119363589
 Magnitude of difference =             0.0056526403
 Angle between gradients (degrees)=   28.2480
 Pt 11 Step number  49 out of a maximum of  50
 Modified Bulirsch-Stoer Extrapolation Cycles:
    EPS =    0.000010000000000
      PEZero:  N= 2 I= 1 D=  1.64D-03 Err=  2.19D-04
      PEZero:  N= 3 I= 2 D=  1.64D-03 Err=  1.45D-04
      PEZero:  N= 3 I= 1 D=  3.27D-03 Err=  7.90D-07
 Maximum DWI energy   std dev =  0.000002778 at pt    -1
 Maximum DWI gradient std dev =  0.234972993 at pt    38
 CORRECTOR INTEGRATION CONVERGENCE:
   Recorrection delta-x convergence threshold:    0.010000
   Delta-x Convergence NOT Met
 IRC-IRC-IRC-IRC-IRC-IRC-IRC-IRC-IRC-IRC-IRC-IRC-IRC-IRC-IRC-IRC-IRC-IRC
                          Input orientation:                          
 ---------------------------------------------------------------------
 Center     Atomic      Atomic             Coordinates (Angstroms)
 Number     Number       Type             X           Y           Z
 ---------------------------------------------------------------------
      1         14           0       -1.950891   -0.462215    0.083935
      2          8           0       -1.839207   -1.444284    1.552961
      3          8           0       -1.949846    0.822647   -1.152281
      4          8           0       -2.742300   -1.695187   -0.864342
      5          8           0       -0.344580   -1.026026   -0.554305
      6          8           0       -0.631025    0.789889    1.200594
      7          8           0       -3.437526    0.267940    0.671396
      8          6           0        0.668502    0.592582    0.825496
      9          1           0        1.374312    0.693653    1.680468
     10          6           0        0.744315   -0.852381    0.277291
     11          1           0       -3.679057   -0.285767    1.414981
     12          1           0       -1.350158   -0.861830    2.135685
     13          1           0       -2.039221   -2.228272   -1.226584
     14          1           0       -2.857413    1.124402   -1.129992
     15          6           0        1.142114    1.634557   -0.215596
     16          1           0        0.893919    1.275316   -1.219298
     17          8           0        2.586396    1.768773   -0.101530
     18          1           0        2.908517    2.082604   -0.944052
     19          6           0        0.477646    2.999002   -0.040390
     20          1           0        0.258944    3.150668    1.025495
     21          1           0        1.199444    3.769240   -0.352530
     22          8           0       -0.665732    3.149299   -0.827508
     23          1           0       -1.156885    2.283028   -0.835228
     24          6           0        1.974764   -1.336921   -0.506316
     25          1           0        2.242015   -0.608831   -1.286176
     26          8           0        1.604804   -2.561550   -1.124940
     27          1           0        0.643456   -2.435444   -1.215168
     28          6           0        3.215453   -1.603013    0.341159
     29          1           0        2.901525   -1.984145    1.322885
     30          1           0        3.788436   -2.394514   -0.150798
     31          8           0        4.073552   -0.489465    0.492647
     32          1           0        3.536558    0.314108    0.407301
     33          1           0        0.659445   -1.519475    1.154952
 ---------------------------------------------------------------------
                    Distance matrix (angstroms):
                    1          2          3          4          5
     1  Si   0.000000
     2  O    1.770585   0.000000
     3  O    1.783004   3.531225   0.000000
     4  O    1.745215   2.592659   2.655256   0.000000
     5  O    1.818094   2.617139   2.520326   2.508577   0.000000
     6  O    2.134652   2.564253   2.697477   3.859669   2.541509
     7  O    1.757362   2.502697   2.417994   2.587605   3.569735
     8  C    2.919543   3.311591   3.289419   4.441060   2.355860
     9  H    3.865479   3.861831   4.369340   5.397139   3.302438
    10  C    2.730156   2.941474   3.479640   3.764324   1.381086
    11  H    2.188464   2.178589   3.287794   2.838889   3.942690
    12  H    2.174914   0.958118   3.742701   3.410675   2.876490
    13  H    2.200959   2.894911   3.053132   0.953792   2.183841
    14  H    2.193799   3.851380   0.956678   2.834414   3.357094
    15  C    3.748714   4.636306   3.331185   5.157203   3.066542
    16  H    3.579159   4.748855   2.880347   4.708712   2.696715
    17  O    5.059514   5.713759   4.751497   6.401242   4.075111
    18  H    5.580924   6.419883   5.023399   6.797779   4.516428
    19  C    4.230044   5.258266   3.444639   5.751727   4.140170
    20  H    4.338528   5.078783   3.878291   6.005102   4.506082
    21  H    5.293424   6.328122   4.386347   6.757164   5.041756
    22  O    3.940229   5.305156   2.677263   5.270915   4.196560
    23  H    3.001944   4.479047   1.691751   4.282591   3.418858
    24  C    4.065007   4.335727   4.525878   4.744179   2.340581
    25  H    4.413521   5.041335   4.431563   5.118741   2.720324
    26  O    4.302506   4.503404   4.908061   4.440249   2.546283
    27  H    3.508838   3.848189   4.164652   3.483447   1.843751
    28  C    5.297047   5.200313   5.898686   6.079190   3.715994
    29  H    5.234234   4.776915   6.127015   6.059720   3.870275
    30  H    6.060425   5.956181   6.654394   6.606717   4.372345
    31  O    6.038353   6.082489   6.380341   7.053441   4.572079
    32  H    5.551518   5.770904   5.726389   6.714045   4.217094
    33  H    3.013093   2.531269   4.197291   3.959834   2.042821
                    6          7          8          9         10
     6  O    0.000000
     7  O    2.903262   0.000000
     8  C    1.366895   4.121724   0.000000
     9  H    2.064199   4.934901   1.113265   0.000000
    10  C    2.332616   4.347210   1.547318   2.180831   0.000000
    11  H    3.239367   0.958043   4.474401   5.154249   4.602349
    12  H    2.029709   2.788840   2.811921   3.170092   2.800096
    13  H    4.121104   3.433462   4.415882   5.351710   3.450042
    14  H    3.240422   2.077272   4.066798   5.098208   4.342875
    15  C    2.421381   4.860813   1.547221   2.129384   2.566328
    16  H    2.901202   4.832282   2.167515   2.996290   2.605619
    17  O    3.606320   6.256002   2.433335   2.408433   3.226021
    18  H    4.335779   6.795215   3.220113   3.342316   3.845723
    19  C    2.765750   4.826377   2.564574   3.013302   3.873652
    20  H    2.529028   4.700999   2.598372   2.776680   4.101194
    21  H    3.826140   5.899918   3.429402   3.690920   4.686491
    22  O    3.111466   4.269870   3.324065   4.059793   4.384319
    23  H    2.578869   3.395854   2.991262   3.906634   3.831846
    24  C    3.771870   5.766756   2.683846   3.043978   1.537148
    25  H    4.049050   6.071079   2.894562   3.354154   2.178726
    26  O    4.651793   6.054579   3.824841   4.303462   2.372330
    27  H    4.226462   5.246126   3.651559   4.325518   2.178003
    28  C    4.610857   6.918935   3.397378   3.233918   2.583419
    29  H    4.493231   6.758690   3.445767   3.103361   2.650983
    30  H    5.612336   7.744623   4.428304   4.326466   3.439201
    31  O    4.926559   7.551286   3.588311   3.177513   3.355876
    32  H    4.269009   6.979236   2.911732   2.537779   3.028898
    33  H    2.645857   4.495982   2.137618   2.384353   1.105671
                   11         12         13         14         15
    11  H    0.000000
    12  H    2.505002   0.000000
    13  H    3.666095   3.694161   0.000000
    14  H    3.023336   4.108720   3.452418   0.000000
    15  C    5.439680   4.239327   5.105334   4.134320   0.000000
    16  H    5.503500   4.567186   4.569299   3.755429   1.094565
    17  O    6.765859   5.236570   6.215983   5.577455   1.454983
    18  H    7.387175   6.024183   6.568378   5.847964   1.962542
    19  C    5.494178   4.793974   5.921661   3.977937   1.527719
    20  H    5.241052   4.463391   6.267887   4.296924   2.149161
    21  H    6.585359   5.842816   6.871905   4.904866   2.139839
    22  O    5.090046   5.033697   5.564531   2.999196   2.436635
    23  H    4.245410   4.330567   4.613405   2.078725   2.467763
    24  C    6.063168   4.273288   4.174371   5.458665   3.099597
    25  H    6.516112   4.967580   4.577676   5.388196   2.718218
    26  O    6.288845   4.717258   3.660645   5.787715   4.318367
    27  H    5.497538   4.204638   2.690689   4.993580   4.220511
    28  C    7.100881   4.961299   5.519091   6.817829   3.884658
    29  H    6.796839   4.471805   5.565101   6.988922   4.307836
    30  H    7.915929   5.829432   5.928451   7.583462   4.820853
    31  O    7.809939   5.679337   6.583707   7.299028   3.688686
    32  H    7.310293   5.315086   6.342128   6.625913   2.804451
    33  H    4.517992   2.330845   3.668365   4.957756   3.472649
                   16         17         18         19         20
    16  H    0.000000
    17  O    2.087435   0.000000
    18  H    2.187711   0.955036   0.000000
    19  C    2.129366   2.442136   2.750550   0.000000
    20  H    2.993198   2.932039   3.469887   1.098610   0.000000
    21  H    2.657874   2.447142   2.472968   1.100768   1.779361
    22  O    2.469377   3.606832   3.731847   1.396230   2.070905
    23  H    2.317065   3.849016   4.071794   1.953478   2.493924
    24  C    2.915537   3.191125   3.571646   4.610713   5.042711
    25  H    2.317724   2.678616   2.793760   4.204930   4.838411
    26  O    3.903306   4.556598   4.827064   5.776371   6.250211
    27  H    3.719205   4.763470   5.061300   5.562445   6.031009
    28  C    4.013643   3.458414   3.915322   5.368399   5.639747
    29  H    4.595352   4.026494   4.655910   5.706615   5.782558
    30  H    4.794535   4.333622   4.631208   6.329576   6.677576
    31  O    4.019363   2.768450   3.168114   5.038260   5.299597
    32  H    3.248582   1.810460   2.312610   4.094634   4.378469
    33  H    3.674629   4.013037   4.736995   4.677449   4.689072
                   21         22         23         24         25
    21  H    0.000000
    22  O    2.022082   0.000000
    23  H    2.827386   0.995850   0.000000
    24  C    5.166977   5.215512   4.797858   0.000000
    25  H    4.596319   4.773773   4.485389   1.099873   0.000000
    26  O    6.390605   6.152853   5.583976   1.421014   2.060375
    27  H    6.288988   5.749227   5.064540   1.865906   2.428363
    28  C    5.779844   6.246107   5.966786   1.525886   2.141075
    29  H    6.229408   6.610731   6.271914   2.150293   3.022191
    30  H    6.688455   7.143627   6.841347   2.129389   2.620909
    31  O    5.206860   6.119169   6.066913   2.474070   2.555971
    32  H    4.239974   5.217500   5.239173   2.449448   2.322826
    33  H    5.525813   5.242490   4.660354   2.126782   3.048427
                   26         27         28         29         30
    26  O    0.000000
    27  H    0.973773   0.000000
    28  C    2.379586   3.119337   0.000000
    29  H    2.829616   3.426990   1.098908   0.000000
    30  H    2.396894   3.320460   1.093986   1.768264   0.000000
    31  O    3.606223   4.297561   1.413956   2.072924   2.030893
    32  H    3.787987   4.308420   1.944951   2.554120   2.776968
    33  H    2.679091   2.541008   2.683732   2.295875   3.501608
                   31         32         33
    31  O    0.000000
    32  H    0.970245   0.000000
    33  H    3.627079   3.492677   0.000000
 Symmetry turned off by external request.
 Stoichiometry    C6H16O10Si(2-)
 Framework group  C1[X(C6H16O10Si)]
 Deg. of freedom    93
 Full point group                 C1      NOp   1
 Rotational constants (GHZ):           0.5695817           0.3547912           0.2587614
 Standard basis: def2TZVPP (5D, 7F)
   762 basis functions,  1157 primitive gaussians,   864 cartesian basis functions
    74 alpha electrons       74 beta electrons
       nuclear repulsion energy      1699.7740250233 Hartrees.
 NAtoms=   33 NActive=   33 NUniq=   33 SFac= 1.00D+00 NAtFMM=   60 NAOKFM=F Big=F
 Integral buffers will be    131072 words long.
 Raffenetti 2 integral format.
 Two-electron integral symmetry is turned off.
 Nuclear repulsion after empirical dispersion term =     1699.7460471907 Hartrees.
 One-electron integrals computed using PRISM.
   1 Symmetry operations used in ECPInt.
 ECPInt:  NShTT=   41041 NPrTT=  113485 LenC2=   37152 LenP2D=   76109.
 LDataN:  DoStor=T MaxTD1= 6 Len=  172
 NBasis=   762 RedAO= T EigKep=  4.41D-05  NBF=   762
 NBsUse=   762 1.00D-06 EigRej= -1.00D+00 NBFU=   762
 Initial guess from the checkpoint file:  "PmonoL_HbiL_mannitol_IRC_forward.chk"
 B after Tr=    -0.000040   -0.000068   -0.000047
         Rot=    1.000000   -0.000021    0.000014   -0.000008 Ang=  -0.00 deg.
 ExpMin= 7.01D-02 ExpMax= 4.48D+04 ExpMxC= 1.53D+03 IAcc=3 IRadAn=         5 AccDes= 0.00D+00
 Harris functional with IExCor= 4639 and IRadAn=       5 diagonalized for initial guess.
 HarFok:  IExCor= 4639 AccDes= 0.00D+00 IRadAn=         5 IDoV= 1 UseB2=F ITyADJ=14
 ICtDFT=  3500011 ScaDFX=  1.000000  1.000000  1.000000  1.000000
 FoFCou: FMM=F IPFlag=           0 FMFlag=      100000 FMFlg1=           0
         NFxFlg=           0 DoJE=T BraDBF=F KetDBF=T FulRan=T
         wScrn=  0.000000 ICntrl=       500 IOpCl=  0 I1Cent=   200000004 NGrid=           0
         NMat0=    1 NMatS0=      1 NMatT0=    0 NMatD0=    1 NMtDS0=    0 NMtDT0=    0
 Symmetry not used in FoFCou.
 Requested convergence on RMS density matrix=1.00D-08 within 128 cycles.
 Requested convergence on MAX density matrix=1.00D-06.
 Requested convergence on             energy=1.00D-06.
 No special actions if energy rises.
 Integral accuracy reduced to 1.0D-05 until final iterations.
 Initial convergence to 1.0D-05 achieved.  Increase integral accuracy.
 SCF Done:  E(RwB97XD) =  -1280.31603701     A.U. after   11 cycles
            NFock= 11  Conv=0.29D-08     -V/T= 2.0037
 DoSCS=F DFT=T ScalE2(SS,OS)=  1.000000  1.000000
 Range of M.O.s used for correlation:     1   762
 NBasis=   762 NAE=    74 NBE=    74 NFC=     0 NFV=     0
 NROrb=    762 NOA=    74 NOB=    74 NVA=   688 NVB=   688

 **** Warning!!: The largest alpha MO coefficient is  0.18207122D+02

 Symmetrizing basis deriv contribution to polar:
 IMax=3 JMax=2 DiffMx= 0.00D+00
   1 Symmetry operations used in ECPInt.
 ECPInt:  NShTT=   41041 NPrTT=  113485 LenC2=   37152 LenP2D=   76109.
 LDataN:  DoStor=T MaxTD1= 7 Len=  274
 Calling FoFJK, ICntrl=      2127 FMM=F ISym2X=0 I1Cent= 0 IOpClX= 0 NMat=1 NMatS=1 NMatT=0.
 -------------------------------------------------------------------
 Center     Atomic                   Forces (Hartrees/Bohr)
 Number     Number              X              Y              Z
 -------------------------------------------------------------------
      1       14           0.003613618    0.003465530    0.002924006
      2        8          -0.000190680   -0.002299741    0.000054647
      3        8           0.000829689    0.000671768   -0.000940150
      4        8          -0.000065421    0.002378610    0.001289898
      5        8           0.000651077   -0.001467032   -0.000345097
      6        8          -0.003572597   -0.002385869   -0.004345398
      7        8           0.001068040   -0.000056012    0.004722721
      8        6          -0.001489787   -0.000528523   -0.000940090
      9        1          -0.000222764    0.000046816    0.000070391
     10        6           0.000248767   -0.000576815   -0.000260071
     11        1           0.001012039    0.002134971   -0.003031078
     12        1          -0.000147202   -0.000186051    0.000189724
     13        1          -0.000041462    0.000058584    0.000116723
     14        1          -0.000048670   -0.000192810   -0.000212430
     15        6          -0.000815363   -0.000278191   -0.000187054
     16        1          -0.000016729    0.000002759   -0.000026446
     17        8          -0.001187208   -0.000521921    0.001054866
     18        1          -0.000021780   -0.000008329    0.000066051
     19        6          -0.000797744   -0.000258343   -0.000081028
     20        1          -0.000058459   -0.000024553   -0.000003949
     21        1          -0.000033717   -0.000017108    0.000024821
     22        8          -0.000659328    0.000154770   -0.000364389
     23        1          -0.000057624    0.000008993   -0.000054147
     24        6           0.000509444   -0.000133146   -0.000100014
     25        1           0.000028420   -0.000001008   -0.000000747
     26        8           0.000870451   -0.000149620   -0.000195233
     27        1           0.000036827   -0.000009092   -0.000009014
     28        6           0.000458037   -0.000069095   -0.000062773
     29        1           0.000029353   -0.000039469   -0.000015208
     30        1           0.000053468    0.000021487   -0.000020648
     31        8           0.000005542    0.000286978    0.000649692
     32        1          -0.000019924    0.000000010    0.000036481
     33        1           0.000031688   -0.000028550   -0.000005055
 -------------------------------------------------------------------
 Cartesian Forces:  Max     0.004722721 RMS     0.001177980
 IRC-IRC-IRC-IRC-IRC-IRC-IRC-IRC-IRC-IRC-IRC-IRC-IRC-IRC-IRC-IRC-IRC-IRC
 Error in corrector energy =          -0.0000363629
 Magnitude of corrector gradient =     0.0109303602
 Magnitude of analytic gradient =      0.0117207520
 Magnitude of difference =             0.0056662438
 Angle between gradients (degrees)=   28.7016
 Pt 11 Step number  50 out of a maximum of  50
 Modified Bulirsch-Stoer Extrapolation Cycles:
    EPS =    0.000010000000000
      PEZero:  N= 2 I= 1 D=  1.64D-03 Err=  1.13D-04
      PEZero:  N= 3 I= 2 D=  1.64D-03 Err=  7.49D-05
      PEZero:  N= 3 I= 1 D=  3.27D-03 Err=  5.50D-07
 Maximum DWI energy   std dev =  0.000003985 at pt    54
 Maximum DWI gradient std dev =  0.206518748 at pt    38
 CORRECTOR INTEGRATION CONVERGENCE:
   Recorrection delta-x convergence threshold:    0.010000
   Delta-x Convergence NOT Met
 Maximum number of corrector steps exceded.
 Error termination via Lnk1e in /opt/software/gaussian/g16.c01/l123.exe at Tue Feb 13 22:20:07 2024.
 Job cpu time:       9 days  7 hours 43 minutes  1.8 seconds.
 Elapsed time:       2 days  8 hours  0 minutes 37.6 seconds.
 File lengths (MBytes):  RWF=   1292 Int=      0 D2E=      0 Chk=     43 Scr=      1
