 Entering Gaussian System, Link 0=/opt/software/gaussian/g16.c01/g16
 Initial command:
 /opt/software/gaussian/g16.c01/l1.exe "/scratch/arhender/13209957/Gau-50801.inp" -scrdir="/scratch/arhender/13209957/"
 Entering Link 1 = /opt/software/gaussian/g16.c01/l1.exe PID=     50802.
  
 Copyright (c) 1988-2019, Gaussian, Inc.  All Rights Reserved.
  
 This is part of the Gaussian(R) 16 program.  It is based on
 the Gaussian(R) 09 system (copyright 2009, Gaussian, Inc.),
 the Gaussian(R) 03 system (copyright 2003, Gaussian, Inc.),
 the Gaussian(R) 98 system (copyright 1998, Gaussian, Inc.),
 the Gaussian(R) 94 system (copyright 1995, Gaussian, Inc.),
 the Gaussian 92(TM) system (copyright 1992, Gaussian, Inc.),
 the Gaussian 90(TM) system (copyright 1990, Gaussian, Inc.),
 the Gaussian 88(TM) system (copyright 1988, Gaussian, Inc.),
 the Gaussian 86(TM) system (copyright 1986, Carnegie Mellon
 University), and the Gaussian 82(TM) system (copyright 1983,
 Carnegie Mellon University). Gaussian is a federally registered
 trademark of Gaussian, Inc.
  
 This software contains proprietary and confidential information,
 including trade secrets, belonging to Gaussian, Inc.
  
 This software is provided under written license and may be
 used, copied, transmitted, or stored only in accord with that
 written license.
  
 The following legend is applicable only to US Government
 contracts under FAR:
  
                    RESTRICTED RIGHTS LEGEND
  
 Use, reproduction and disclosure by the US Government is
 subject to restrictions as set forth in subparagraphs (a)
 and (c) of the Commercial Computer Software - Restricted
 Rights clause in FAR 52.227-19.
  
 Gaussian, Inc.
 340 Quinnipiac St., Bldg. 40, Wallingford CT 06492
  
  
 ---------------------------------------------------------------
 Warning -- This program may not be used in any manner that
 competes with the business of Gaussian, Inc. or will provide
 assistance to any competitor of Gaussian, Inc.  The licensee
 of this program is prohibited from giving any competitor of
 Gaussian, Inc. access to this program.  By using this program,
 the user acknowledges that Gaussian, Inc. is engaged in the
 business of creating and licensing software in the field of
 computational chemistry and represents and warrants to the
 licensee that it is not a competitor of Gaussian, Inc. and that
 it will not use this program in any manner prohibited above.
 ---------------------------------------------------------------
  

 Cite this work as:
 Gaussian 16, Revision C.01,
 M. J. Frisch, G. W. Trucks, H. B. Schlegel, G. E. Scuseria, 
 M. A. Robb, J. R. Cheeseman, G. Scalmani, V. Barone, 
 G. A. Petersson, H. Nakatsuji, X. Li, M. Caricato, A. V. Marenich, 
 J. Bloino, B. G. Janesko, R. Gomperts, B. Mennucci, H. P. Hratchian, 
 J. V. Ortiz, A. F. Izmaylov, J. L. Sonnenberg, D. Williams-Young, 
 F. Ding, F. Lipparini, F. Egidi, J. Goings, B. Peng, A. Petrone, 
 T. Henderson, D. Ranasinghe, V. G. Zakrzewski, J. Gao, N. Rega, 
 G. Zheng, W. Liang, M. Hada, M. Ehara, K. Toyota, R. Fukuda, 
 J. Hasegawa, M. Ishida, T. Nakajima, Y. Honda, O. Kitao, H. Nakai, 
 T. Vreven, K. Throssell, J. A. Montgomery, Jr., J. E. Peralta, 
 F. Ogliaro, M. J. Bearpark, J. J. Heyd, E. N. Brothers, K. N. Kudin, 
 V. N. Staroverov, T. A. Keith, R. Kobayashi, J. Normand, 
 K. Raghavachari, A. P. Rendell, J. C. Burant, S. S. Iyengar, 
 J. Tomasi, M. Cossi, J. M. Millam, M. Klene, C. Adamo, R. Cammi, 
 J. W. Ochterski, R. L. Martin, K. Morokuma, O. Farkas, 
 J. B. Foresman, and D. J. Fox, Gaussian, Inc., Wallingford CT, 2019.
 
 ******************************************
 Gaussian 16:  ES64L-G16RevC.01  3-Jul-2019
                27-Sep-2023 
 ******************************************
 %chk=MannitolConformerOpt_22.chk
 %mem=8GB
 %nprocs=16
 Will use up to   16 processors via shared memory.
 ---------------------------------------------
 # opt freq wb97xd/def2tzvpp geom=connectivity
 ---------------------------------------------
 1/18=20,19=15,26=3,38=1,57=2/1,3;
 2/9=110,12=2,17=6,18=5,40=1/2;
 3/5=44,7=202,11=2,25=1,30=1,71=1,74=-58/1,2,3;
 4//1;
 5/5=2,38=5/2;
 6/7=2,8=2,9=2,10=2,28=1/1;
 7//1,2,3,16;
 1/18=20,19=15,26=3/3(2);
 2/9=110/2;
 99//99;
 2/9=110/2;
 3/5=44,7=202,11=2,25=1,30=1,71=1,74=-58/1,2,3;
 4/5=5,16=3,69=1/1;
 5/5=2,38=5/2;
 7//1,2,3,16;
 1/18=20,19=15,26=3/3(-5);
 2/9=110/2;
 6/7=2,8=2,9=2,10=2,19=2,28=1/1;
 99/9=1/99;
 --------------------------------
 Mannitol Conformer Optimziations
 --------------------------------
 Symbolic Z-matrix:
 Charge =  0 Multiplicity = 1
 C                     0.        0.        0. 
 C                     1.555     0.        0. 
 C                    -0.6265    0.7458   -1.194 
 C                     2.2151   -0.7573    1.1738 
 H                     1.9303    1.0285    0. 
 H                    -0.3856    0.4491    0.9192 
 C                    -0.2148    2.2131   -1.3059 
 H                    -1.7203    0.6767   -1.1437 
 C                     1.9336   -0.1691    2.5564 
 H                     3.3009   -0.7656    1.0163 
 H                     0.8516    2.3203   -1.5237 
 H                    -0.4529    2.7656   -0.3926 
 H                     2.1158    0.9094    2.576 
 H                     2.58     -0.6406    3.3042 
 O                    -0.9156    2.8193   -2.3921 
 H                    -0.8337    2.1927   -3.1382 
 O                    -0.2548    0.0734   -2.4168 
 H                    -0.5985   -0.8387   -2.2915 
 O                    -0.4998   -1.3498   -0.0851 
 H                    -0.0067   -1.8696    0.5831 
 O                     2.0568   -0.6403   -1.1923 
 H                     1.49     -0.352    -1.9397 
 O                     1.7865   -2.1327    1.1534 
 H                     2.0666   -2.4535    0.2685 
 O                     0.5899   -0.4178    2.9542 
 H                     0.4913   -1.3904    2.933 
 

 GradGradGradGradGradGradGradGradGradGradGradGradGradGradGradGradGradGrad
 Berny optimization.
 Initialization pass.
                           ----------------------------
                           !    Initial Parameters    !
                           ! (Angstroms and Degrees)  !
 --------------------------                            --------------------------
 ! Name  Definition              Value          Derivative Info.                !
 --------------------------------------------------------------------------------
 ! R1    R(1,2)                  1.555          estimate D2E/DX2                !
 ! R2    R(1,3)                  1.5409         estimate D2E/DX2                !
 ! R3    R(1,6)                  1.0933         estimate D2E/DX2                !
 ! R4    R(1,19)                 1.4419         estimate D2E/DX2                !
 ! R5    R(2,4)                  1.545          estimate D2E/DX2                !
 ! R6    R(2,5)                  1.0948         estimate D2E/DX2                !
 ! R7    R(2,21)                 1.4434         estimate D2E/DX2                !
 ! R8    R(3,7)                  1.5281         estimate D2E/DX2                !
 ! R9    R(3,8)                  1.0971         estimate D2E/DX2                !
 ! R10   R(3,17)                 1.4441         estimate D2E/DX2                !
 ! R11   R(4,9)                  1.5287         estimate D2E/DX2                !
 ! R12   R(4,10)                 1.0972         estimate D2E/DX2                !
 ! R13   R(4,23)                 1.4408         estimate D2E/DX2                !
 ! R14   R(7,11)                 1.0937         estimate D2E/DX2                !
 ! R15   R(7,12)                 1.0936         estimate D2E/DX2                !
 ! R16   R(7,15)                 1.4277         estimate D2E/DX2                !
 ! R17   R(9,13)                 1.094          estimate D2E/DX2                !
 ! R18   R(9,14)                 1.0951         estimate D2E/DX2                !
 ! R19   R(9,25)                 1.4232         estimate D2E/DX2                !
 ! R20   R(15,16)                0.9778         estimate D2E/DX2                !
 ! R21   R(17,18)                0.9827         estimate D2E/DX2                !
 ! R22   R(19,20)                0.9797         estimate D2E/DX2                !
 ! R23   R(21,22)                0.9813         estimate D2E/DX2                !
 ! R24   R(23,24)                0.982          estimate D2E/DX2                !
 ! R25   R(25,26)                0.9778         estimate D2E/DX2                !
 ! A1    A(2,1,3)              113.9903         estimate D2E/DX2                !
 ! A2    A(2,1,6)              110.6521         estimate D2E/DX2                !
 ! A3    A(2,1,19)             110.2815         estimate D2E/DX2                !
 ! A4    A(3,1,6)              108.015          estimate D2E/DX2                !
 ! A5    A(3,1,19)             105.4519         estimate D2E/DX2                !
 ! A6    A(6,1,19)             108.1744         estimate D2E/DX2                !
 ! A7    A(1,2,4)              115.293          estimate D2E/DX2                !
 ! A8    A(1,2,5)              110.047          estimate D2E/DX2                !
 ! A9    A(1,2,21)             110.3439         estimate D2E/DX2                !
 ! A10   A(4,2,5)              108.3008         estimate D2E/DX2                !
 ! A11   A(4,2,21)             105.1652         estimate D2E/DX2                !
 ! A12   A(5,2,21)             107.311          estimate D2E/DX2                !
 ! A13   A(1,3,7)              114.3279         estimate D2E/DX2                !
 ! A14   A(1,3,8)              109.8365         estimate D2E/DX2                !
 ! A15   A(1,3,17)             109.0328         estimate D2E/DX2                !
 ! A16   A(7,3,8)              109.417          estimate D2E/DX2                !
 ! A17   A(7,3,17)             108.4055         estimate D2E/DX2                !
 ! A18   A(8,3,17)             105.4323         estimate D2E/DX2                !
 ! A19   A(2,4,9)              114.8261         estimate D2E/DX2                !
 ! A20   A(2,4,10)             108.5094         estimate D2E/DX2                !
 ! A21   A(2,4,23)             109.2727         estimate D2E/DX2                !
 ! A22   A(9,4,10)             108.3595         estimate D2E/DX2                !
 ! A23   A(9,4,23)             108.9866         estimate D2E/DX2                !
 ! A24   A(10,4,23)            106.5669         estimate D2E/DX2                !
 ! A25   A(3,7,11)             111.8025         estimate D2E/DX2                !
 ! A26   A(3,7,12)             111.4254         estimate D2E/DX2                !
 ! A27   A(3,7,15)             109.3398         estimate D2E/DX2                !
 ! A28   A(11,7,12)            109.2122         estimate D2E/DX2                !
 ! A29   A(11,7,15)            106.5876         estimate D2E/DX2                !
 ! A30   A(12,7,15)            108.2985         estimate D2E/DX2                !
 ! A31   A(4,9,13)             111.4001         estimate D2E/DX2                !
 ! A32   A(4,9,14)             110.074          estimate D2E/DX2                !
 ! A33   A(4,9,25)             111.0643         estimate D2E/DX2                !
 ! A34   A(13,9,14)            108.2952         estimate D2E/DX2                !
 ! A35   A(13,9,25)            108.9357         estimate D2E/DX2                !
 ! A36   A(14,9,25)            106.9278         estimate D2E/DX2                !
 ! A37   A(7,15,16)            105.5049         estimate D2E/DX2                !
 ! A38   A(3,17,18)            103.5424         estimate D2E/DX2                !
 ! A39   A(1,19,20)            106.3776         estimate D2E/DX2                !
 ! A40   A(2,21,22)            107.338          estimate D2E/DX2                !
 ! A41   A(4,23,24)            103.872          estimate D2E/DX2                !
 ! A42   A(9,25,26)            105.2452         estimate D2E/DX2                !
 ! D1    D(3,1,2,4)           -179.161          estimate D2E/DX2                !
 ! D2    D(3,1,2,5)             58.0101         estimate D2E/DX2                !
 ! D3    D(3,1,2,21)           -60.227          estimate D2E/DX2                !
 ! D4    D(6,1,2,4)             58.8679         estimate D2E/DX2                !
 ! D5    D(6,1,2,5)            -63.9609         estimate D2E/DX2                !
 ! D6    D(6,1,2,21)           177.802          estimate D2E/DX2                !
 ! D7    D(19,1,2,4)           -60.7786         estimate D2E/DX2                !
 ! D8    D(19,1,2,5)           176.3925         estimate D2E/DX2                !
 ! D9    D(19,1,2,21)           58.1554         estimate D2E/DX2                !
 ! D10   D(2,1,3,7)            -58.3428         estimate D2E/DX2                !
 ! D11   D(2,1,3,8)            178.2254         estimate D2E/DX2                !
 ! D12   D(2,1,3,17)            63.1578         estimate D2E/DX2                !
 ! D13   D(6,1,3,7)             65.0702         estimate D2E/DX2                !
 ! D14   D(6,1,3,8)            -58.3616         estimate D2E/DX2                !
 ! D15   D(6,1,3,17)          -173.4292         estimate D2E/DX2                !
 ! D16   D(19,1,3,7)          -179.4506         estimate D2E/DX2                !
 ! D17   D(19,1,3,8)            57.1176         estimate D2E/DX2                !
 ! D18   D(19,1,3,17)          -57.95           estimate D2E/DX2                !
 ! D19   D(2,1,19,20)           48.0965         estimate D2E/DX2                !
 ! D20   D(3,1,19,20)          171.5912         estimate D2E/DX2                !
 ! D21   D(6,1,19,20)          -73.0391         estimate D2E/DX2                !
 ! D22   D(1,2,4,9)            -63.7032         estimate D2E/DX2                !
 ! D23   D(1,2,4,10)           174.9071         estimate D2E/DX2                !
 ! D24   D(1,2,4,23)            59.0837         estimate D2E/DX2                !
 ! D25   D(5,2,4,9)             60.0505         estimate D2E/DX2                !
 ! D26   D(5,2,4,10)           -61.3392         estimate D2E/DX2                !
 ! D27   D(5,2,4,23)          -177.1626         estimate D2E/DX2                !
 ! D28   D(21,2,4,9)           174.5296         estimate D2E/DX2                !
 ! D29   D(21,2,4,10)           53.1399         estimate D2E/DX2                !
 ! D30   D(21,2,4,23)          -62.6835         estimate D2E/DX2                !
 ! D31   D(1,2,21,22)           40.4393         estimate D2E/DX2                !
 ! D32   D(4,2,21,22)          165.3717         estimate D2E/DX2                !
 ! D33   D(5,2,21,22)          -79.462          estimate D2E/DX2                !
 ! D34   D(1,3,7,11)            65.7341         estimate D2E/DX2                !
 ! D35   D(1,3,7,12)           -56.7932         estimate D2E/DX2                !
 ! D36   D(1,3,7,15)          -176.4741         estimate D2E/DX2                !
 ! D37   D(8,3,7,11)          -170.6085         estimate D2E/DX2                !
 ! D38   D(8,3,7,12)            66.8642         estimate D2E/DX2                !
 ! D39   D(8,3,7,15)           -52.8167         estimate D2E/DX2                !
 ! D40   D(17,3,7,11)          -56.111          estimate D2E/DX2                !
 ! D41   D(17,3,7,12)         -178.6384         estimate D2E/DX2                !
 ! D42   D(17,3,7,15)           61.6807         estimate D2E/DX2                !
 ! D43   D(1,3,17,18)           58.355          estimate D2E/DX2                !
 ! D44   D(7,3,17,18)         -176.6107         estimate D2E/DX2                !
 ! D45   D(8,3,17,18)          -59.5246         estimate D2E/DX2                !
 ! D46   D(2,4,9,13)           -49.2434         estimate D2E/DX2                !
 ! D47   D(2,4,9,14)          -169.3876         estimate D2E/DX2                !
 ! D48   D(2,4,9,25)            72.3868         estimate D2E/DX2                !
 ! D49   D(10,4,9,13)           72.228          estimate D2E/DX2                !
 ! D50   D(10,4,9,14)          -47.9162         estimate D2E/DX2                !
 ! D51   D(10,4,9,25)         -166.1418         estimate D2E/DX2                !
 ! D52   D(23,4,9,13)         -172.184          estimate D2E/DX2                !
 ! D53   D(23,4,9,14)           67.6719         estimate D2E/DX2                !
 ! D54   D(23,4,9,25)          -50.5537         estimate D2E/DX2                !
 ! D55   D(2,4,23,24)           58.2866         estimate D2E/DX2                !
 ! D56   D(9,4,23,24)         -175.5074         estimate D2E/DX2                !
 ! D57   D(10,4,23,24)         -58.7713         estimate D2E/DX2                !
 ! D58   D(3,7,15,16)          -46.5366         estimate D2E/DX2                !
 ! D59   D(11,7,15,16)          74.4781         estimate D2E/DX2                !
 ! D60   D(12,7,15,16)        -168.1252         estimate D2E/DX2                !
 ! D61   D(4,9,25,26)           57.9121         estimate D2E/DX2                !
 ! D62   D(13,9,25,26)        -179.0282         estimate D2E/DX2                !
 ! D63   D(14,9,25,26)         -62.1999         estimate D2E/DX2                !
 --------------------------------------------------------------------------------
 Trust Radius=3.00D-01 FncErr=1.00D-07 GrdErr=1.00D-06 EigMax=2.50D+02 EigMin=1.00D-04
 Number of steps in this run=    140 maximum allowed number of steps=    156.
 GradGradGradGradGradGradGradGradGradGradGradGradGradGradGradGradGradGrad

                          Input orientation:                          
 ---------------------------------------------------------------------
 Center     Atomic      Atomic             Coordinates (Angstroms)
 Number     Number       Type             X           Y           Z
 ---------------------------------------------------------------------
      1          6           0        0.000000    0.000000    0.000000
      2          6           0        1.555000    0.000000    0.000000
      3          6           0       -0.626500    0.745800   -1.194000
      4          6           0        2.215100   -0.757300    1.173800
      5          1           0        1.930300    1.028500    0.000000
      6          1           0       -0.385600    0.449100    0.919200
      7          6           0       -0.214800    2.213100   -1.305900
      8          1           0       -1.720300    0.676700   -1.143700
      9          6           0        1.933600   -0.169100    2.556400
     10          1           0        3.300900   -0.765600    1.016300
     11          1           0        0.851600    2.320300   -1.523700
     12          1           0       -0.452900    2.765600   -0.392600
     13          1           0        2.115800    0.909400    2.576000
     14          1           0        2.580000   -0.640600    3.304200
     15          8           0       -0.915600    2.819300   -2.392100
     16          1           0       -0.833700    2.192700   -3.138200
     17          8           0       -0.254800    0.073400   -2.416800
     18          1           0       -0.598500   -0.838700   -2.291500
     19          8           0       -0.499800   -1.349800   -0.085100
     20          1           0       -0.006700   -1.869600    0.583100
     21          8           0        2.056800   -0.640300   -1.192300
     22          1           0        1.490000   -0.352000   -1.939700
     23          8           0        1.786500   -2.132700    1.153400
     24          1           0        2.066600   -2.453500    0.268500
     25          8           0        0.589900   -0.417800    2.954200
     26          1           0        0.491300   -1.390400    2.933000
 ---------------------------------------------------------------------
                    Distance matrix (angstroms):
                    1          2          3          4          5
     1  C    0.000000
     2  C    1.555000   0.000000
     3  C    1.540895   2.596304   0.000000
     4  C    2.618774   1.545005   3.992553   0.000000
     5  H    2.187206   1.094834   2.835980   2.155922   0.000000
     6  H    1.093301   2.193752   2.147482   2.878170   2.558129
     7  C    2.578629   3.120157   1.528067   4.569092   2.776708
     8  H    2.173800   3.534623   1.097134   4.786913   3.841704
     9  C    3.209764   2.589810   4.632133   1.528661   2.823019
    10  H    3.537648   2.160365   4.753338   1.097195   2.475925
    11  H    2.903563   2.863604   2.184613   4.313613   2.270243
    12  H    2.829805   3.440108   2.179902   4.688567   2.975112
    13  H    3.455343   2.788778   4.664748   2.180347   2.585415
    14  H    4.240814   3.518342   5.695397   2.164573   3.758423
    15  O    3.809057   4.446848   2.412141   5.942137   4.126530
    16  H    3.918072   4.512441   2.432358   6.049052   4.340894
    17  O    2.431303   3.020213   1.444134   4.436539   3.395261
    18  H    2.512487   3.254528   1.927675   4.464446   3.890018
    19  O    1.441875   2.459960   2.374290   3.050667   3.401314
    20  H    1.958432   2.504859   3.222197   2.553925   3.534255
    21  O    2.462111   1.443387   3.020161   2.374274   2.054866
    22  H    2.471121   1.972452   2.498160   3.222409   2.421173
    23  O    3.011698   2.435638   4.429291   1.440777   3.368115
    24  H    3.219098   2.520613   4.430261   1.928397   3.494996
    25  O    3.041354   3.135805   4.476735   2.434412   3.551866
    26  H    3.282846   3.415722   4.779640   2.543047   4.065008
                    6          7          8          9         10
     6  H    0.000000
     7  C    2.844633   0.000000
     8  H    2.467546   2.157166   0.000000
     9  C    2.905389   5.020743   5.268501   0.000000
    10  H    3.882680   5.159982   5.653165   2.144115   0.000000
    11  H    3.316597   1.093681   3.075791   4.900516   4.687585
    12  H    2.662991   1.093647   2.556161   4.796295   5.342788
    13  H    3.035435   4.711738   5.348456   1.093958   2.577354
    14  H    3.958592   6.099798   6.325478   1.095148   2.402043
    15  O    4.106514   1.427736   2.607063   6.444853   6.499813
    16  H    4.438855   1.934109   2.657507   6.757553   6.565541
    17  O    3.359636   2.411227   2.032842   5.438807   5.013292
    18  H    3.465884   3.229879   2.207333   5.510175   5.113923
    19  O    2.063420   3.777014   2.591709   3.780610   3.999962
    20  H    2.373373   4.503339   3.521634   3.248134   3.513787
    21  O    3.407425   3.648967   4.000417   3.780206   2.537991
    22  H    3.511829   3.144485   3.463794   4.521631   3.491183
    23  O    3.382094   5.379529   5.046488   2.417803   2.044790
    24  H    3.855098   5.427769   5.112052   3.235840   2.220745
    25  O    2.417507   5.071255   4.829880   1.423245   3.350514
    26  H    2.864979   5.608214   5.077751   1.927078   3.458029
                   11         12         13         14         15
    11  H    0.000000
    12  H    1.783087   0.000000
    13  H    4.516235   4.342382   0.000000
    14  H    5.921395   5.870861   1.774333   0.000000
    15  O    2.031284   2.053040   6.125285   7.525820   0.000000
    16  H    2.337334   2.830467   6.557323   7.822113   0.977753
    17  O    2.659005   3.374103   5.589874   6.424619   2.824400
    18  H    3.559717   4.076518   5.840876   6.438475   3.673096
    19  O    4.167192   4.127139   4.361972   4.634165   4.782942
    20  H    4.767656   4.757748   4.024860   3.950423   5.627051
    21  O    3.213641   4.305609   4.074940   4.526837   4.716303
    22  H    2.778812   3.985951   4.730148   5.363756   4.006085
    23  O    5.279215   5.603425   3.374404   2.735314   6.662899
    24  H    5.241886   5.833004   4.078734   3.572906   6.616247
    25  O    5.255213   4.735244   2.057393   2.032889   6.428707
    26  H    5.810446   5.405873   2.838226   2.250035   6.932361
                   16         17         18         19         20
    16  H    0.000000
    17  O    2.312353   0.000000
    18  H    3.156201   0.982729   0.000000
    19  O    4.688519   2.742690   2.266973   0.000000
    20  H    5.570842   3.582765   3.110676   0.979710   0.000000
    21  O    4.490814   2.711506   2.880663   2.874976   2.986847
    22  H    3.648490   1.858203   2.173125   2.897318   3.302687
    23  O    6.632674   4.666917   4.385202   2.715508   1.900008
    24  H    6.450157   4.357173   4.032857   2.815954   2.176806
    25  O    6.779284   5.459161   5.395074   3.360568   2.843549
    26  H    7.173123   5.596404   5.365393   3.176925   2.449422
                   21         22         23         24         25
    21  O    0.000000
    22  H    0.981318   0.000000
    23  O    2.793319   3.581351   0.000000
    24  H    2.328460   3.102405   0.982047   0.000000
    25  O    4.403949   4.976421   2.759640   3.679362   0.000000
    26  H    4.475661   5.081228   2.322828   3.272814   0.977815
                   26
    26  H    0.000000
 Stoichiometry    C6H14O6
 Framework group  C1[X(C6H14O6)]
 Deg. of freedom    72
 Full point group                 C1      NOp   1
 Largest Abelian subgroup         C1      NOp   1
 Largest concise Abelian subgroup C1      NOp   1
                         Standard orientation:                         
 ---------------------------------------------------------------------
 Center     Atomic      Atomic             Coordinates (Angstroms)
 Number     Number       Type             X           Y           Z
 ---------------------------------------------------------------------
      1          6           0       -0.200913    0.194623    0.573601
      2          6           0        0.443146   -0.187777   -0.789111
      3          6           0       -1.741143    0.149379    0.573241
      4          6           0        1.987824   -0.171973   -0.816728
      5          1           0        0.078379    0.479248   -1.576947
      6          1           0        0.107798    1.198331    0.877861
      7          6           0       -2.397453    1.061127   -0.462597
      8          1           0       -2.121166    0.398940    1.571743
      9          6           0        2.619958    1.199877   -0.581705
     10          1           0        2.322562   -0.544038   -1.793127
     11          1           0       -2.174800    0.741231   -1.484473
     12          1           0       -2.084414    2.101195   -0.334808
     13          1           0        2.164754    1.963612   -1.219076
     14          1           0        3.692044    1.162491   -0.802125
     15          8           0       -3.816274    0.998798   -0.315997
     16          1           0       -4.030008    0.047449   -0.243506
     17          8           0       -2.172407   -1.206450    0.325732
     18          1           0       -1.758610   -1.716613    1.056664
     19          8           0        0.210403   -0.732442    1.598477
     20          1           0        1.183189   -0.817782    1.519514
     21          8           0        0.072612   -1.532745   -1.159423
     22          1           0       -0.873540   -1.649935   -0.926938
     23          8           0        2.490538   -1.094811    0.168912
     24          1           0        2.099192   -1.956312   -0.093922
     25          8           0        2.490230    1.596553    0.778973
     26          1           0        2.925286    0.889437    1.295535
 ---------------------------------------------------------------------
 Rotational constants (GHZ):           1.5484832           0.5358442           0.4958923
 Standard basis: def2TZVPP (5D, 7F)
 There are   642 symmetry adapted cartesian basis functions of A   symmetry.
 There are   568 symmetry adapted basis functions of A   symmetry.
   568 basis functions,   850 primitive gaussians,   642 cartesian basis functions
    49 alpha electrons       49 beta electrons
       nuclear repulsion energy       840.7144467119 Hartrees.
 NAtoms=   26 NActive=   26 NUniq=   26 SFac= 1.00D+00 NAtFMM=   60 NAOKFM=F Big=F
 Integral buffers will be    131072 words long.
 Raffenetti 2 integral format.
 Two-electron integral symmetry is turned on.
 Nuclear repulsion after empirical dispersion term =      840.6951365061 Hartrees.
 One-electron integrals computed using PRISM.
   1 Symmetry operations used in ECPInt.
 ECPInt:  NShTT=   23436 NPrTT=   62434 LenC2=   22002 LenP2D=   45964.
 LDataN:  DoStor=T MaxTD1= 6 Len=  172
 NBasis=   568 RedAO= T EigKep=  4.17D-05  NBF=   568
 NBsUse=   568 1.00D-06 EigRej= -1.00D+00 NBFU=   568
 ExpMin= 9.52D-02 ExpMax= 2.70D+04 ExpMxC= 9.22D+02 IAcc=3 IRadAn=         5 AccDes= 0.00D+00
 Harris functional with IExCor= 4639 and IRadAn=       5 diagonalized for initial guess.
 HarFok:  IExCor= 4639 AccDes= 0.00D+00 IRadAn=         5 IDoV= 1 UseB2=F ITyADJ=14
 ICtDFT=  3500011 ScaDFX=  1.000000  1.000000  1.000000  1.000000
 FoFCou: FMM=F IPFlag=           0 FMFlag=      100000 FMFlg1=           0
         NFxFlg=           0 DoJE=T BraDBF=F KetDBF=T FulRan=T
         wScrn=  0.000000 ICntrl=       500 IOpCl=  0 I1Cent=   200000004 NGrid=           0
         NMat0=    1 NMatS0=      1 NMatT0=    0 NMatD0=    1 NMtDS0=    0 NMtDT0=    0
 Petite list used in FoFCou.
 Requested convergence on RMS density matrix=1.00D-08 within 128 cycles.
 Requested convergence on MAX density matrix=1.00D-06.
 Requested convergence on             energy=1.00D-06.
 No special actions if energy rises.
 Integral accuracy reduced to 1.0D-05 until final iterations.
 Initial convergence to 1.0D-05 achieved.  Increase integral accuracy.
 SCF Done:  E(RwB97XD) =  -688.473114413     A.U. after   13 cycles
            NFock= 13  Conv=0.91D-08     -V/T= 2.0050

 **********************************************************************

            Population analysis using the SCF Density.

 **********************************************************************

 Orbital symmetries:
       Occupied  (A) (A) (A) (A) (A) (A) (A) (A) (A) (A) (A) (A)
                 (A) (A) (A) (A) (A) (A) (A) (A) (A) (A) (A) (A)
                 (A) (A) (A) (A) (A) (A) (A) (A) (A) (A) (A) (A)
                 (A) (A) (A) (A) (A) (A) (A) (A) (A) (A) (A) (A)
                 (A)
       Virtual   (A) (A) (A) (A) (A) (A) (A) (A) (A) (A) (A) (A)
                 (A) (A) (A) (A) (A) (A) (A) (A) (A) (A) (A) (A)
                 (A) (A) (A) (A) (A) (A) (A) (A) (A) (A) (A) (A)
                 (A) (A) (A) (A) (A) (A) (A) (A) (A) (A) (A) (A)
                 (A) (A) (A) (A) (A) (A) (A) (A) (A) (A) (A) (A)
                 (A) (A) (A) (A) (A) (A) (A) (A) (A) (A) (A) (A)
                 (A) (A) (A) (A) (A) (A) (A) (A) (A) (A) (A) (A)
                 (A) (A) (A) (A) (A) (A) (A) (A) (A) (A) (A) (A)
                 (A) (A) (A) (A) (A) (A) (A) (A) (A) (A) (A) (A)
                 (A) (A) (A) (A) (A) (A) (A) (A) (A) (A) (A) (A)
                 (A) (A) (A) (A) (A) (A) (A) (A) (A) (A) (A) (A)
                 (A) (A) (A) (A) (A) (A) (A) (A) (A) (A) (A) (A)
                 (A) (A) (A) (A) (A) (A) (A) (A) (A) (A) (A) (A)
                 (A) (A) (A) (A) (A) (A) (A) (A) (A) (A) (A) (A)
                 (A) (A) (A) (A) (A) (A) (A) (A) (A) (A) (A) (A)
                 (A) (A) (A) (A) (A) (A) (A) (A) (A) (A) (A) (A)
                 (A) (A) (A) (A) (A) (A) (A) (A) (A) (A) (A) (A)
                 (A) (A) (A) (A) (A) (A) (A) (A) (A) (A) (A) (A)
                 (A) (A) (A) (A) (A) (A) (A) (A) (A) (A) (A) (A)
                 (A) (A) (A) (A) (A) (A) (A) (A) (A) (A) (A) (A)
                 (A) (A) (A) (A) (A) (A) (A) (A) (A) (A) (A) (A)
                 (A) (A) (A) (A) (A) (A) (A) (A) (A) (A) (A) (A)
                 (A) (A) (A) (A) (A) (A) (A) (A) (A) (A) (A) (A)
                 (A) (A) (A) (A) (A) (A) (A) (A) (A) (A) (A) (A)
                 (A) (A) (A) (A) (A) (A) (A) (A) (A) (A) (A) (A)
                 (A) (A) (A) (A) (A) (A) (A) (A) (A) (A) (A) (A)
                 (A) (A) (A) (A) (A) (A) (A) (A) (A) (A) (A) (A)
                 (A) (A) (A) (A) (A) (A) (A) (A) (A) (A) (A) (A)
                 (A) (A) (A) (A) (A) (A) (A) (A) (A) (A) (A) (A)
                 (A) (A) (A) (A) (A) (A) (A) (A) (A) (A) (A) (A)
                 (A) (A) (A) (A) (A) (A) (A) (A) (A) (A) (A) (A)
                 (A) (A) (A) (A) (A) (A) (A) (A) (A) (A) (A) (A)
                 (A) (A) (A) (A) (A) (A) (A) (A) (A) (A) (A) (A)
                 (A) (A) (A) (A) (A) (A) (A) (A) (A) (A) (A) (A)
                 (A) (A) (A) (A) (A) (A) (A) (A) (A) (A) (A) (A)
                 (A) (A) (A) (A) (A) (A) (A) (A) (A) (A) (A) (A)
                 (A) (A) (A) (A) (A) (A) (A) (A) (A) (A) (A) (A)
                 (A) (A) (A) (A) (A) (A) (A) (A) (A) (A) (A) (A)
                 (A) (A) (A) (A) (A) (A) (A) (A) (A) (A) (A) (A)
                 (A) (A) (A) (A) (A) (A) (A) (A) (A) (A) (A) (A)
                 (A) (A) (A) (A) (A) (A) (A) (A) (A) (A) (A) (A)
                 (A) (A) (A) (A) (A) (A) (A) (A) (A) (A) (A) (A)
                 (A) (A) (A) (A) (A) (A) (A) (A) (A) (A) (A) (A)
                 (A) (A) (A)
 The electronic state is 1-A.
 Alpha  occ. eigenvalues --  -19.28009 -19.27655 -19.26288 -19.25035 -19.24939
 Alpha  occ. eigenvalues --  -19.24909 -10.35763 -10.35271 -10.35203 -10.34864
 Alpha  occ. eigenvalues --  -10.34757 -10.34160  -1.16670  -1.15418  -1.13140
 Alpha  occ. eigenvalues --   -1.12160  -1.11220  -1.10984  -0.89145  -0.86391
 Alpha  occ. eigenvalues --   -0.80065  -0.75960  -0.71490  -0.69101  -0.65367
 Alpha  occ. eigenvalues --   -0.61883  -0.61107  -0.61018  -0.58550  -0.58237
 Alpha  occ. eigenvalues --   -0.56374  -0.55598  -0.53632  -0.52445  -0.52237
 Alpha  occ. eigenvalues --   -0.51099  -0.50046  -0.47320  -0.46823  -0.45340
 Alpha  occ. eigenvalues --   -0.44379  -0.43397  -0.42432  -0.40215  -0.38499
 Alpha  occ. eigenvalues --   -0.37445  -0.36735  -0.36152  -0.35547
 Alpha virt. eigenvalues --    0.08751   0.10583   0.11475   0.12822   0.13668
 Alpha virt. eigenvalues --    0.14320   0.15612   0.16633   0.17158   0.17779
 Alpha virt. eigenvalues --    0.18938   0.19024   0.20025   0.21173   0.21980
 Alpha virt. eigenvalues --    0.22576   0.23639   0.24192   0.25162   0.26377
 Alpha virt. eigenvalues --    0.27347   0.29960   0.30524   0.31834   0.33528
 Alpha virt. eigenvalues --    0.34394   0.35137   0.36396   0.37236   0.37756
 Alpha virt. eigenvalues --    0.38143   0.39121   0.39275   0.39685   0.40422
 Alpha virt. eigenvalues --    0.40837   0.41671   0.43601   0.44306   0.44568
 Alpha virt. eigenvalues --    0.45270   0.45664   0.46786   0.47108   0.47256
 Alpha virt. eigenvalues --    0.47919   0.48997   0.49555   0.49893   0.50689
 Alpha virt. eigenvalues --    0.51323   0.51435   0.52188   0.53668   0.53877
 Alpha virt. eigenvalues --    0.55905   0.56189   0.56922   0.57950   0.58875
 Alpha virt. eigenvalues --    0.60104   0.60210   0.61309   0.62185   0.63192
 Alpha virt. eigenvalues --    0.64519   0.65745   0.66703   0.67624   0.67802
 Alpha virt. eigenvalues --    0.69421   0.71086   0.71422   0.73449   0.73688
 Alpha virt. eigenvalues --    0.74694   0.76544   0.77262   0.79091   0.79973
 Alpha virt. eigenvalues --    0.81798   0.83200   0.83389   0.85421   0.86104
 Alpha virt. eigenvalues --    0.86616   0.87783   0.89408   0.90206   0.91223
 Alpha virt. eigenvalues --    0.92519   0.93767   0.94546   0.95090   0.96170
 Alpha virt. eigenvalues --    0.96395   0.97431   0.98601   0.99697   1.02066
 Alpha virt. eigenvalues --    1.02593   1.04403   1.05099   1.05305   1.07461
 Alpha virt. eigenvalues --    1.08652   1.10468   1.11888   1.12886   1.13739
 Alpha virt. eigenvalues --    1.14191   1.14930   1.15996   1.17750   1.18678
 Alpha virt. eigenvalues --    1.19895   1.20705   1.21331   1.21844   1.23783
 Alpha virt. eigenvalues --    1.25497   1.26350   1.27454   1.29547   1.30289
 Alpha virt. eigenvalues --    1.30485   1.32232   1.33076   1.33340   1.34803
 Alpha virt. eigenvalues --    1.36448   1.36798   1.37835   1.39426   1.40955
 Alpha virt. eigenvalues --    1.42140   1.43047   1.44083   1.45777   1.45848
 Alpha virt. eigenvalues --    1.47033   1.47650   1.49309   1.50571   1.50912
 Alpha virt. eigenvalues --    1.52884   1.53283   1.54290   1.56022   1.56965
 Alpha virt. eigenvalues --    1.59434   1.60679   1.62570   1.62797   1.64674
 Alpha virt. eigenvalues --    1.66234   1.69791   1.70062   1.70659   1.71927
 Alpha virt. eigenvalues --    1.73948   1.76156   1.78801   1.82240   1.83772
 Alpha virt. eigenvalues --    1.88249   1.88409   1.90569   1.90743   1.91875
 Alpha virt. eigenvalues --    1.92469   1.94779   1.95169   1.97627   1.98659
 Alpha virt. eigenvalues --    1.99150   2.01257   2.02963   2.03694   2.04857
 Alpha virt. eigenvalues --    2.06938   2.07452   2.07680   2.09353   2.10435
 Alpha virt. eigenvalues --    2.12511   2.13865   2.15392   2.16982   2.18374
 Alpha virt. eigenvalues --    2.20055   2.22449   2.23182   2.23713   2.25680
 Alpha virt. eigenvalues --    2.26061   2.27180   2.29173   2.30572   2.31729
 Alpha virt. eigenvalues --    2.32857   2.34394   2.34980   2.37960   2.40218
 Alpha virt. eigenvalues --    2.43187   2.45495   2.46719   2.52415   2.53871
 Alpha virt. eigenvalues --    2.56595   2.58826   2.61304   2.64047   2.64949
 Alpha virt. eigenvalues --    2.66893   2.67738   2.68719   2.70807   2.71799
 Alpha virt. eigenvalues --    2.72522   2.73437   2.74104   2.75381   2.76960
 Alpha virt. eigenvalues --    2.78538   2.79441   2.80651   2.82260   2.85187
 Alpha virt. eigenvalues --    2.86136   2.86493   2.88501   2.90996   2.91673
 Alpha virt. eigenvalues --    2.92665   2.93131   2.96180   2.96505   2.97111
 Alpha virt. eigenvalues --    2.98551   2.98779   3.00794   3.02317   3.04128
 Alpha virt. eigenvalues --    3.04946   3.05804   3.07937   3.10137   3.10772
 Alpha virt. eigenvalues --    3.11488   3.12571   3.13403   3.15477   3.15951
 Alpha virt. eigenvalues --    3.16037   3.17964   3.18798   3.20641   3.20771
 Alpha virt. eigenvalues --    3.22536   3.23842   3.24987   3.26372   3.27617
 Alpha virt. eigenvalues --    3.28236   3.28797   3.30627   3.31175   3.32288
 Alpha virt. eigenvalues --    3.32826   3.34151   3.35164   3.36480   3.39102
 Alpha virt. eigenvalues --    3.39740   3.41035   3.41634   3.42517   3.43837
 Alpha virt. eigenvalues --    3.45476   3.45595   3.46026   3.47443   3.48619
 Alpha virt. eigenvalues --    3.49023   3.50893   3.51497   3.52100   3.52667
 Alpha virt. eigenvalues --    3.54404   3.55034   3.56528   3.58386   3.60518
 Alpha virt. eigenvalues --    3.61279   3.62430   3.63413   3.64117   3.65632
 Alpha virt. eigenvalues --    3.66629   3.67537   3.69983   3.70244   3.71899
 Alpha virt. eigenvalues --    3.72528   3.74120   3.75417   3.75937   3.76418
 Alpha virt. eigenvalues --    3.76841   3.79413   3.80465   3.81069   3.81713
 Alpha virt. eigenvalues --    3.84406   3.85031   3.85784   3.86795   3.87806
 Alpha virt. eigenvalues --    3.89223   3.90347   3.92551   3.94016   3.95098
 Alpha virt. eigenvalues --    3.97053   3.97130   3.98681   3.99939   4.00695
 Alpha virt. eigenvalues --    4.01200   4.03147   4.04545   4.05102   4.06798
 Alpha virt. eigenvalues --    4.07932   4.09178   4.09880   4.10779   4.12011
 Alpha virt. eigenvalues --    4.13023   4.14685   4.16124   4.16866   4.17392
 Alpha virt. eigenvalues --    4.18702   4.19432   4.19905   4.22194   4.22889
 Alpha virt. eigenvalues --    4.24197   4.24742   4.25759   4.26671   4.28173
 Alpha virt. eigenvalues --    4.29740   4.31306   4.31911   4.32585   4.34150
 Alpha virt. eigenvalues --    4.36484   4.37463   4.38087   4.39693   4.40339
 Alpha virt. eigenvalues --    4.41990   4.43252   4.44285   4.45318   4.46840
 Alpha virt. eigenvalues --    4.47193   4.49022   4.50959   4.51544   4.54541
 Alpha virt. eigenvalues --    4.55307   4.56513   4.57340   4.58952   4.61751
 Alpha virt. eigenvalues --    4.62182   4.64804   4.65796   4.66545   4.69428
 Alpha virt. eigenvalues --    4.72498   4.75967   4.77773   4.79509   4.82053
 Alpha virt. eigenvalues --    4.82794   4.85068   4.85706   4.88059   4.88636
 Alpha virt. eigenvalues --    4.91338   4.92716   4.93383   4.95459   4.96834
 Alpha virt. eigenvalues --    4.97635   4.99502   5.00715   5.02159   5.03272
 Alpha virt. eigenvalues --    5.04378   5.06450   5.07508   5.09207   5.10661
 Alpha virt. eigenvalues --    5.11691   5.13008   5.14919   5.15883   5.18218
 Alpha virt. eigenvalues --    5.19529   5.19945   5.25456   5.26841   5.29189
 Alpha virt. eigenvalues --    5.29983   5.32212   5.32440   5.36652   5.40266
 Alpha virt. eigenvalues --    5.42328   5.48308   5.54006   5.56633   5.59099
 Alpha virt. eigenvalues --    5.60346   5.60969   5.63798   5.64434   5.66011
 Alpha virt. eigenvalues --    5.68675   5.69389   5.70413   5.72441   5.74114
 Alpha virt. eigenvalues --    5.76626   5.79590   5.81293   5.81880   5.85536
 Alpha virt. eigenvalues --    5.86269   5.87636   5.91296   5.93465   5.98339
 Alpha virt. eigenvalues --    5.99152   6.02245   6.05563   6.12129   6.12899
 Alpha virt. eigenvalues --    6.14853   6.16307   6.19688   6.22642   6.50987
 Alpha virt. eigenvalues --    6.51963   6.53026   6.53519   6.54040   6.55197
 Alpha virt. eigenvalues --    6.69344   6.70983   6.73203   6.74840   6.75393
 Alpha virt. eigenvalues --    6.77814   6.78054   6.79181   6.79575   6.80440
 Alpha virt. eigenvalues --    6.82212   6.84023   6.86658   6.86834   6.88422
 Alpha virt. eigenvalues --    6.89417   6.94807   6.96885   7.00270   7.01219
 Alpha virt. eigenvalues --    7.02393   7.04295   7.05556   7.08241   7.15070
 Alpha virt. eigenvalues --    7.17683   7.19403   7.19659   7.24933   7.28970
 Alpha virt. eigenvalues --    7.40640   7.42107   7.44087   7.44902   7.46547
 Alpha virt. eigenvalues --    7.51340   7.54371   7.56176   7.58317   7.61433
 Alpha virt. eigenvalues --    7.62601   7.67417  23.10970  23.13619  23.16001
 Alpha virt. eigenvalues --   23.25226  23.42882  23.45293  44.07915  44.11931
 Alpha virt. eigenvalues --   44.22746  44.28163  44.34717  44.42930
          Condensed to atoms (all electrons):
               1          2          3          4          5          6
     1  C    5.038863   0.174290   0.168565   0.001024  -0.038758   0.456265
     2  C    0.174290   4.971976   0.001880   0.257777   0.444326  -0.038400
     3  C    0.168565   0.001880   5.076964   0.009646  -0.021903  -0.048516
     4  C    0.001024   0.257777   0.009646   4.997496  -0.039971  -0.009583
     5  H   -0.038758   0.444326  -0.021903  -0.039971   0.606119   0.006465
     6  H    0.456265  -0.038400  -0.048516  -0.009583   0.006465   0.550592
     7  C   -0.038118   0.020442   0.294815  -0.001288   0.007542   0.000700
     8  H   -0.037557   0.010158   0.434342   0.000208  -0.000547  -0.005924
     9  C    0.010609  -0.013151  -0.002676   0.247709  -0.000155  -0.001525
    10  H    0.010290  -0.055985  -0.000557   0.447614  -0.006198  -0.000649
    11  H   -0.005219   0.009007  -0.023105   0.002514  -0.007212  -0.000473
    12  H    0.006785  -0.009325  -0.029874  -0.000667  -0.000488   0.002741
    13  H   -0.003126   0.004071  -0.000216  -0.039162   0.001227  -0.000973
    14  H    0.001403   0.006182   0.000086  -0.038623  -0.000659   0.000802
    15  O    0.010079  -0.001238  -0.028046  -0.000048  -0.000191  -0.000113
    16  H    0.002364  -0.000985  -0.011187  -0.000019  -0.000093  -0.000013
    17  O   -0.023019  -0.016193   0.190185  -0.000488   0.001068   0.003951
    18  H    0.006421   0.000183  -0.045438  -0.000438   0.000298   0.001239
    19  O    0.261394  -0.039740  -0.060258  -0.000388   0.004070  -0.028531
    20  H   -0.026456  -0.006248   0.004184  -0.000045  -0.000088  -0.003342
    21  O   -0.036655   0.270822   0.002983  -0.060891  -0.033819   0.003621
    22  H   -0.008291  -0.028845   0.001046   0.003940  -0.003341   0.000185
    23  O   -0.018674  -0.031134  -0.000653   0.228767   0.004926   0.000545
    24  H   -0.001914   0.010696  -0.001029  -0.049297   0.001798   0.000261
    25  O    0.013261  -0.032391   0.002421  -0.019406  -0.000476   0.014324
    26  H    0.000922  -0.001869   0.000154  -0.005388  -0.000243  -0.003574
               7          8          9         10         11         12
     1  C   -0.038118  -0.037557   0.010609   0.010290  -0.005219   0.006785
     2  C    0.020442   0.010158  -0.013151  -0.055985   0.009007  -0.009325
     3  C    0.294815   0.434342  -0.002676  -0.000557  -0.023105  -0.029874
     4  C   -0.001288   0.000208   0.247709   0.447614   0.002514  -0.000667
     5  H    0.007542  -0.000547  -0.000155  -0.006198  -0.007212  -0.000488
     6  H    0.000700  -0.005924  -0.001525  -0.000649  -0.000473   0.002741
     7  C    4.696532  -0.030170   0.000045   0.000045   0.401264   0.406423
     8  H   -0.030170   0.550342   0.000065   0.000025   0.007848  -0.006242
     9  C    0.000045   0.000065   4.741890  -0.022186  -0.000011   0.000101
    10  H    0.000045   0.000025  -0.022186   0.562328   0.000050   0.000004
    11  H    0.401264   0.007848  -0.000011   0.000050   0.626455  -0.037232
    12  H    0.406423  -0.006242   0.000101   0.000004  -0.037232   0.607801
    13  H   -0.000169  -0.000005   0.410605   0.001945  -0.000004   0.000078
    14  H    0.000004  -0.000000   0.431138  -0.004473   0.000003  -0.000004
    15  O    0.277404   0.009346   0.000005  -0.000000  -0.046853  -0.031489
    16  H   -0.043612  -0.002169  -0.000000   0.000000  -0.005715   0.009710
    17  O   -0.030720  -0.033923   0.000199   0.000051  -0.002646   0.003706
    18  H    0.010627  -0.010851   0.000019  -0.000010  -0.000608  -0.000404
    19  O    0.003796   0.003368  -0.003193  -0.000751  -0.000095  -0.000170
    20  H   -0.000558   0.000381  -0.004910   0.001303   0.000046  -0.000031
    21  O   -0.007135  -0.000828   0.004210   0.003641   0.002329   0.000272
    22  H   -0.003131   0.001253  -0.000596   0.000319   0.001424   0.000331
    23  O    0.000181   0.000004  -0.041763  -0.031959  -0.000044   0.000002
    24  H    0.000064  -0.000027   0.010938  -0.011312  -0.000033   0.000002
    25  O    0.000100   0.000015   0.246282   0.004077  -0.000017  -0.000067
    26  H   -0.000027   0.000008  -0.032463   0.000543   0.000002   0.000002
              13         14         15         16         17         18
     1  C   -0.003126   0.001403   0.010079   0.002364  -0.023019   0.006421
     2  C    0.004071   0.006182  -0.001238  -0.000985  -0.016193   0.000183
     3  C   -0.000216   0.000086  -0.028046  -0.011187   0.190185  -0.045438
     4  C   -0.039162  -0.038623  -0.000048  -0.000019  -0.000488  -0.000438
     5  H    0.001227  -0.000659  -0.000191  -0.000093   0.001068   0.000298
     6  H   -0.000973   0.000802  -0.000113  -0.000013   0.003951   0.001239
     7  C   -0.000169   0.000004   0.277404  -0.043612  -0.030720   0.010627
     8  H   -0.000005  -0.000000   0.009346  -0.002169  -0.033923  -0.010851
     9  C    0.410605   0.431138   0.000005  -0.000000   0.000199   0.000019
    10  H    0.001945  -0.004473  -0.000000   0.000000   0.000051  -0.000010
    11  H   -0.000004   0.000003  -0.046853  -0.005715  -0.002646  -0.000608
    12  H    0.000078  -0.000004  -0.031489   0.009710   0.003706  -0.000404
    13  H    0.599193  -0.031700  -0.000001  -0.000000   0.000002   0.000003
    14  H   -0.031700   0.586407   0.000000   0.000000  -0.000001  -0.000000
    15  O   -0.000001   0.000000   7.858859   0.320286  -0.007642  -0.000394
    16  H   -0.000000   0.000000   0.320286   0.518921   0.016488  -0.001122
    17  O    0.000002  -0.000001  -0.007642   0.016488   7.953184   0.324425
    18  H    0.000003  -0.000000  -0.000394  -0.001122   0.324425   0.489206
    19  O    0.000133  -0.000032  -0.000100  -0.000042  -0.011186   0.023675
    20  H   -0.000048   0.000128   0.000012   0.000002  -0.000452  -0.000961
    21  O    0.000091  -0.000155   0.000032   0.000059  -0.028423   0.002942
    22  H   -0.000006   0.000024   0.000096   0.000264   0.049691  -0.004561
    23  O    0.002732   0.000158   0.000000  -0.000000  -0.000008   0.000097
    24  H   -0.000345  -0.000379  -0.000000  -0.000000   0.000126   0.000150
    25  O   -0.031605  -0.039067   0.000000   0.000000  -0.000014  -0.000004
    26  H    0.009329  -0.009204   0.000000   0.000000  -0.000001  -0.000006
              19         20         21         22         23         24
     1  C    0.261394  -0.026456  -0.036655  -0.008291  -0.018674  -0.001914
     2  C   -0.039740  -0.006248   0.270822  -0.028845  -0.031134   0.010696
     3  C   -0.060258   0.004184   0.002983   0.001046  -0.000653  -0.001029
     4  C   -0.000388  -0.000045  -0.060891   0.003940   0.228767  -0.049297
     5  H    0.004070  -0.000088  -0.033819  -0.003341   0.004926   0.001798
     6  H   -0.028531  -0.003342   0.003621   0.000185   0.000545   0.000261
     7  C    0.003796  -0.000558  -0.007135  -0.003131   0.000181   0.000064
     8  H    0.003368   0.000381  -0.000828   0.001253   0.000004  -0.000027
     9  C   -0.003193  -0.004910   0.004210  -0.000596  -0.041763   0.010938
    10  H   -0.000751   0.001303   0.003641   0.000319  -0.031959  -0.011312
    11  H   -0.000095   0.000046   0.002329   0.001424  -0.000044  -0.000033
    12  H   -0.000170  -0.000031   0.000272   0.000331   0.000002   0.000002
    13  H    0.000133  -0.000048   0.000091  -0.000006   0.002732  -0.000345
    14  H   -0.000032   0.000128  -0.000155   0.000024   0.000158  -0.000379
    15  O   -0.000100   0.000012   0.000032   0.000096   0.000000  -0.000000
    16  H   -0.000042   0.000002   0.000059   0.000264  -0.000000  -0.000000
    17  O   -0.011186  -0.000452  -0.028423   0.049691  -0.000008   0.000126
    18  H    0.023675  -0.000961   0.002942  -0.004561   0.000097   0.000150
    19  O    7.936315   0.347603   0.000354   0.001198  -0.025980   0.003789
    20  H    0.347603   0.438079   0.000085  -0.000072   0.042432  -0.003313
    21  O    0.000354   0.000085   7.934577   0.347358  -0.009938   0.022011
    22  H    0.001198  -0.000072   0.347358   0.426767  -0.000462  -0.000767
    23  O   -0.025980   0.042432  -0.009938  -0.000462   7.940857   0.325304
    24  H    0.003789  -0.003313   0.022011  -0.000767   0.325304   0.488545
    25  O   -0.001756   0.003390   0.000059   0.000054  -0.007825  -0.000209
    26  H    0.001463   0.001394   0.000035   0.000005   0.010403  -0.000967
              25         26
     1  C    0.013261   0.000922
     2  C   -0.032391  -0.001869
     3  C    0.002421   0.000154
     4  C   -0.019406  -0.005388
     5  H   -0.000476  -0.000243
     6  H    0.014324  -0.003574
     7  C    0.000100  -0.000027
     8  H    0.000015   0.000008
     9  C    0.246282  -0.032463
    10  H    0.004077   0.000543
    11  H   -0.000017   0.000002
    12  H   -0.000067   0.000002
    13  H   -0.031605   0.009329
    14  H   -0.039067  -0.009204
    15  O    0.000000   0.000000
    16  H    0.000000   0.000000
    17  O   -0.000014  -0.000001
    18  H   -0.000004  -0.000006
    19  O   -0.001756   0.001463
    20  H    0.003390   0.001394
    21  O    0.000059   0.000035
    22  H    0.000054   0.000005
    23  O   -0.007825   0.010403
    24  H   -0.000209  -0.000967
    25  O    7.885448   0.318616
    26  H    0.318616   0.517751
 Mulliken charges:
               1
     1  C    0.075251
     2  C    0.093695
     3  C    0.086188
     4  C    0.069007
     5  H    0.076303
     6  H    0.099926
     7  C    0.034944
     8  H    0.110881
     9  C    0.018812
    10  H    0.101845
    11  H    0.078324
    12  H    0.078034
    13  H    0.077950
    14  H    0.097961
    15  O   -0.360005
    16  H    0.196864
    17  O   -0.388362
    18  H    0.205510
    19  O   -0.414938
    20  H    0.207486
    21  O   -0.417638
    22  H    0.216119
    23  O   -0.387968
    24  H    0.205906
    25  O   -0.355210
    26  H    0.193115
 Sum of Mulliken charges =  -0.00000
 Mulliken charges with hydrogens summed into heavy atoms:
               1
     1  C    0.175177
     2  C    0.169998
     3  C    0.197068
     4  C    0.170851
     7  C    0.191302
     9  C    0.194724
    15  O   -0.163141
    17  O   -0.182851
    19  O   -0.207452
    21  O   -0.201520
    23  O   -0.182061
    25  O   -0.162095
 Electronic spatial extent (au):  <R**2>=           2413.2363
 Charge=             -0.0000 electrons
 Dipole moment (field-independent basis, Debye):
    X=              1.9941    Y=             -0.5989    Z=             -0.8372  Tot=              2.2441
 Quadrupole moment (field-independent basis, Debye-Ang):
   XX=            -77.2663   YY=            -74.1394   ZZ=            -72.8815
   XY=              3.4797   XZ=             -3.4177   YZ=             -4.2646
 Traceless Quadrupole moment (field-independent basis, Debye-Ang):
   XX=             -2.5039   YY=              0.6229   ZZ=              1.8809
   XY=              3.4797   XZ=             -3.4177   YZ=             -4.2646
 Octapole moment (field-independent basis, Debye-Ang**2):
  XXX=             46.0780  YYY=            -22.9294  ZZZ=              5.4428  XYY=             -0.9236
  XXY=            -33.1019  XXZ=              4.2639  XZZ=              4.1580  YZZ=              0.6752
  YYZ=              1.8853  XYZ=             -5.3513
 Hexadecapole moment (field-independent basis, Debye-Ang**3):
 XXXX=          -2121.4696 YYYY=           -516.8202 ZZZZ=           -389.5836 XXXY=            133.4014
 XXXZ=             -9.7646 YYYX=            -23.9788 YYYZ=            -24.0628 ZZZX=             15.8775
 ZZZY=             -2.9099 XXYY=           -465.2005 XXZZ=           -366.3081 YYZZ=           -157.8231
 XXYZ=             -0.4851 YYXZ=            -16.6538 ZZXY=              6.1353
 N-N= 8.406951365061D+02 E-N=-3.298300305509D+03  KE= 6.850553280992D+02
   1 Symmetry operations used in ECPInt.
 ECPInt:  NShTT=   23436 NPrTT=   62434 LenC2=   22002 LenP2D=   45964.
 LDataN:  DoStor=T MaxTD1= 7 Len=  274
 Calling FoFJK, ICntrl=      2127 FMM=F ISym2X=0 I1Cent= 0 IOpClX= 0 NMat=1 NMatS=1 NMatT=0.
 ***** Axes restored to original set *****
 -------------------------------------------------------------------
 Center     Atomic                   Forces (Hartrees/Bohr)
 Number     Number              X              Y              Z
 -------------------------------------------------------------------
      1        6          -0.004393618   -0.012151957   -0.000260950
      2        6           0.002735948   -0.007145357   -0.015349500
      3        6           0.009527047   -0.006521576    0.001666054
      4        6          -0.002113374   -0.000523960   -0.005187394
      5        1          -0.002675414    0.001768328    0.005199796
      6        1           0.004604236    0.002509227    0.000055011
      7        6          -0.007648310   -0.001960552   -0.019397341
      8        1           0.002972666    0.003652033    0.007329812
      9        6          -0.009262018   -0.014005799    0.002712647
     10        1          -0.002134352    0.005952067   -0.001713457
     11        1           0.003004752   -0.004526577    0.006221155
     12        1          -0.000845239   -0.002651578   -0.002702665
     13        1          -0.002841921   -0.003075098   -0.002002403
     14        1           0.005609309    0.002106084   -0.004276708
     15        8           0.001972484   -0.013521448   -0.004083833
     16        1          -0.001920786    0.012688882    0.012654175
     17        8          -0.009419932   -0.010858176    0.006206321
     18        1           0.008449715    0.017294475   -0.005070244
     19        8           0.006466988    0.008365171    0.008965889
     20        1          -0.006917313    0.007933466   -0.013578949
     21        8          -0.007285169    0.008361987    0.004864503
     22        1           0.007076017   -0.005926656    0.012685949
     23        8           0.011031800    0.002215200   -0.012075354
     24        1          -0.007779639    0.004451053    0.017393867
     25        8           0.002388326   -0.013496987   -0.002002676
     26        1          -0.000602203    0.019067749    0.001746295
 -------------------------------------------------------------------
 Cartesian Forces:  Max     0.019397341 RMS     0.007977024

 GradGradGradGradGradGradGradGradGradGradGradGradGradGradGradGradGradGrad
 Berny optimization.
 FormGI is forming the generalized inverse of G from B-inverse, IUseBI=4.
 Internal  Forces:  Max     0.019652312 RMS     0.005878999
 Search for a local minimum.
 Step number   1 out of a maximum of  140
 All quantities printed in internal units (Hartrees-Bohrs-Radians)
 Mixed Optimization -- RFO/linear search
 Second derivative matrix not updated -- first step.
 ITU=  0
     Eigenvalues ---    0.00230   0.00230   0.00230   0.00387   0.00395
     Eigenvalues ---    0.01108   0.01118   0.01138   0.01152   0.01325
     Eigenvalues ---    0.01384   0.03835   0.03913   0.03915   0.03990
     Eigenvalues ---    0.04692   0.04693   0.04716   0.04757   0.04967
     Eigenvalues ---    0.05182   0.05546   0.05698   0.07601   0.07670
     Eigenvalues ---    0.07744   0.07789   0.11529   0.11622   0.13729
     Eigenvalues ---    0.13872   0.16000   0.16000   0.16000   0.16000
     Eigenvalues ---    0.16000   0.16000   0.16782   0.17053   0.17123
     Eigenvalues ---    0.17345   0.19538   0.19582   0.19687   0.19869
     Eigenvalues ---    0.22022   0.22033   0.27230   0.28080   0.28440
     Eigenvalues ---    0.29547   0.29603   0.33994   0.34001   0.34224
     Eigenvalues ---    0.34260   0.34359   0.34391   0.34395   0.34434
     Eigenvalues ---    0.39024   0.39124   0.39329   0.39479   0.41316
     Eigenvalues ---    0.41975   0.50858   0.50989   0.51130   0.51441
     Eigenvalues ---    0.51812   0.51824
 RFO step:  Lambda=-1.88396841D-02 EMin= 2.30000000D-03
 Linear search not attempted -- first point.
 Iteration  1 RMS(Cart)=  0.09472059 RMS(Int)=  0.00370651
 Iteration  2 RMS(Cart)=  0.00443029 RMS(Int)=  0.00046748
 Iteration  3 RMS(Cart)=  0.00000912 RMS(Int)=  0.00046742
 Iteration  4 RMS(Cart)=  0.00000001 RMS(Int)=  0.00046742
 Variable       Old X    -DE/DX   Delta X   Delta X   Delta X     New X
                                 (Linear)    (Quad)   (Total)
    R1        2.93852  -0.00584   0.00000  -0.02007  -0.02007   2.91845
    R2        2.91187  -0.00777   0.00000  -0.02561  -0.02561   2.88626
    R3        2.06604  -0.00055   0.00000  -0.00150  -0.00150   2.06454
    R4        2.72475  -0.01483   0.00000  -0.03598  -0.03598   2.68876
    R5        2.91964  -0.00786   0.00000  -0.02624  -0.02624   2.89340
    R6        2.06894   0.00074   0.00000   0.00206   0.00206   2.07099
    R7        2.72761  -0.01565   0.00000  -0.03816  -0.03816   2.68945
    R8        2.88763  -0.01050   0.00000  -0.03336  -0.03336   2.85427
    R9        2.07328  -0.00286   0.00000  -0.00796  -0.00796   2.06532
   R10        2.72902  -0.00421   0.00000  -0.01030  -0.01030   2.71872
   R11        2.88875  -0.00622   0.00000  -0.01978  -0.01978   2.86897
   R12        2.07340  -0.00191   0.00000  -0.00532  -0.00532   2.06807
   R13        2.72267  -0.00740   0.00000  -0.01790  -0.01790   2.70477
   R14        2.06676   0.00125   0.00000   0.00344   0.00344   2.07020
   R15        2.06669  -0.00341   0.00000  -0.00940  -0.00940   2.05729
   R16        2.69803  -0.00690   0.00000  -0.01597  -0.01597   2.68206
   R17        2.06728  -0.00354   0.00000  -0.00977  -0.00977   2.05751
   R18        2.06953  -0.00052   0.00000  -0.00143  -0.00143   2.06810
   R19        2.68954  -0.00274   0.00000  -0.00624  -0.00624   2.68330
   R20        1.84768  -0.01795   0.00000  -0.03342  -0.03342   1.81426
   R21        1.85709  -0.01965   0.00000  -0.03726  -0.03726   1.81983
   R22        1.85138  -0.01695   0.00000  -0.03179  -0.03179   1.81959
   R23        1.85442  -0.01549   0.00000  -0.02922  -0.02922   1.82521
   R24        1.85580  -0.01935   0.00000  -0.03659  -0.03659   1.81921
   R25        1.84780  -0.01894   0.00000  -0.03528  -0.03528   1.81252
    A1        1.98951   0.00253   0.00000   0.00755   0.00742   1.99693
    A2        1.93124  -0.00652   0.00000  -0.05159  -0.05193   1.87931
    A3        1.92477   0.00824   0.00000   0.05483   0.05508   1.97985
    A4        1.88522   0.00185   0.00000  -0.00548  -0.00581   1.87941
    A5        1.84048  -0.00850   0.00000  -0.03378  -0.03408   1.80640
    A6        1.88800   0.00236   0.00000   0.03062   0.03108   1.91908
    A7        2.01224   0.00568   0.00000   0.02246   0.02221   2.03446
    A8        1.92068  -0.00568   0.00000  -0.04469  -0.04505   1.87563
    A9        1.92586   0.00599   0.00000   0.04749   0.04759   1.97345
   A10        1.89020  -0.00146   0.00000  -0.03280  -0.03288   1.85732
   A11        1.83548  -0.00815   0.00000  -0.02872  -0.02948   1.80599
   A12        1.87293   0.00355   0.00000   0.03881   0.03891   1.91184
   A13        1.99540   0.00317   0.00000   0.00927   0.00928   2.00468
   A14        1.91701  -0.00493   0.00000  -0.03673  -0.03723   1.87978
   A15        1.90298   0.00646   0.00000   0.04324   0.04341   1.94639
   A16        1.90969   0.00016   0.00000  -0.01675  -0.01690   1.89279
   A17        1.89203  -0.00815   0.00000  -0.03542  -0.03560   1.85643
   A18        1.84014   0.00333   0.00000   0.03953   0.03966   1.87980
   A19        2.00409   0.00357   0.00000   0.01468   0.01470   2.01880
   A20        1.89385  -0.00601   0.00000  -0.04615  -0.04621   1.84763
   A21        1.90717   0.00685   0.00000   0.04401   0.04426   1.95143
   A22        1.89123   0.00153   0.00000  -0.00301  -0.00304   1.88819
   A23        1.90218  -0.00847   0.00000  -0.03447  -0.03487   1.86730
   A24        1.85994   0.00251   0.00000   0.02576   0.02615   1.88610
   A25        1.95132  -0.00562   0.00000  -0.02773  -0.02913   1.92219
   A26        1.94474  -0.00279   0.00000  -0.03059  -0.03099   1.91375
   A27        1.90834   0.00599   0.00000   0.03060   0.03045   1.93879
   A28        1.90611   0.00142   0.00000  -0.00616  -0.00706   1.89905
   A29        1.86030   0.00470   0.00000   0.06115   0.06122   1.92152
   A30        1.89016  -0.00332   0.00000  -0.02320  -0.02279   1.86738
   A31        1.94430  -0.00377   0.00000  -0.03459  -0.03472   1.90958
   A32        1.92115  -0.00558   0.00000  -0.02233  -0.02399   1.89717
   A33        1.93844   0.00953   0.00000   0.04400   0.04368   1.98212
   A34        1.89011   0.00184   0.00000  -0.00338  -0.00396   1.88615
   A35        1.90129  -0.00508   0.00000  -0.03512  -0.03446   1.86683
   A36        1.86624   0.00316   0.00000   0.05376   0.05346   1.91970
   A37        1.84141   0.00288   0.00000   0.01610   0.01610   1.85751
   A38        1.80716   0.00576   0.00000   0.03220   0.03220   1.83936
   A39        1.85664   0.00106   0.00000   0.00595   0.00595   1.86259
   A40        1.87340  -0.00150   0.00000  -0.00841  -0.00841   1.86499
   A41        1.81291   0.00470   0.00000   0.02628   0.02628   1.83919
   A42        1.83688   0.00518   0.00000   0.02896   0.02896   1.86583
    D1       -3.12695  -0.00018   0.00000  -0.08918  -0.08937   3.06687
    D2        1.01247   0.00211   0.00000  -0.02649  -0.02686   0.98561
    D3       -1.05116  -0.00243   0.00000  -0.07579  -0.07519  -1.12635
    D4        1.02744   0.00052   0.00000  -0.04824  -0.04893   0.97851
    D5       -1.11633   0.00281   0.00000   0.01445   0.01358  -1.10275
    D6        3.10323  -0.00173   0.00000  -0.03485  -0.03475   3.06848
    D7       -1.06079  -0.00355   0.00000  -0.08868  -0.08841  -1.14919
    D8        3.07863  -0.00127   0.00000  -0.02599  -0.02590   3.05273
    D9        1.01500  -0.00580   0.00000  -0.07529  -0.07423   0.94078
   D10       -1.01827   0.00518   0.00000   0.05855   0.05851  -0.95976
   D11        3.11062   0.00650   0.00000   0.10250   0.10215  -3.07042
   D12        1.10231   0.00160   0.00000   0.05118   0.05149   1.15380
   D13        1.13569  -0.00012   0.00000  -0.00696  -0.00715   1.12854
   D14       -1.01860   0.00120   0.00000   0.03699   0.03649  -0.98211
   D15       -3.02691  -0.00370   0.00000  -0.01433  -0.01417  -3.04108
   D16       -3.13200  -0.00074   0.00000   0.00905   0.00924  -3.12277
   D17        0.99689   0.00058   0.00000   0.05301   0.05288   1.04977
   D18       -1.01142  -0.00432   0.00000   0.00168   0.00222  -1.00920
   D19        0.83944  -0.00295   0.00000  -0.06362  -0.06271   0.77673
   D20        2.99483  -0.00045   0.00000  -0.04403  -0.04397   2.95087
   D21       -1.27477  -0.00144   0.00000  -0.05290  -0.05388  -1.32865
   D22       -1.11183   0.00488   0.00000   0.05887   0.05860  -1.05323
   D23        3.05271   0.00499   0.00000   0.08728   0.08687   3.13957
   D24        1.03121   0.00161   0.00000   0.05823   0.05854   1.08974
   D25        1.04808   0.00030   0.00000  -0.00983  -0.01021   1.03787
   D26       -1.07057   0.00040   0.00000   0.01859   0.01806  -1.05251
   D27       -3.09207  -0.00297   0.00000  -0.01047  -0.01027  -3.10234
   D28        3.04612  -0.00026   0.00000   0.00590   0.00612   3.05223
   D29        0.92747  -0.00015   0.00000   0.03432   0.03439   0.96185
   D30       -1.09403  -0.00353   0.00000   0.00526   0.00606  -1.08798
   D31        0.70580  -0.00356   0.00000  -0.05968  -0.05878   0.64702
   D32        2.88628   0.00166   0.00000  -0.02274  -0.02255   2.86373
   D33       -1.38687  -0.00227   0.00000  -0.05633  -0.05742  -1.44429
   D34        1.14728  -0.00071   0.00000  -0.01501  -0.01460   1.13268
   D35       -0.99123   0.00352   0.00000   0.03512   0.03469  -0.95654
   D36       -3.08005   0.00551   0.00000   0.06325   0.06314  -3.01692
   D37       -2.97768  -0.00477   0.00000  -0.06962  -0.06932  -3.04700
   D38        1.16700  -0.00054   0.00000  -0.01949  -0.02003   1.14697
   D39       -0.92183   0.00145   0.00000   0.00864   0.00841  -0.91341
   D40       -0.97932  -0.00513   0.00000  -0.05073  -0.05007  -1.02939
   D41       -3.11783  -0.00090   0.00000  -0.00060  -0.00078  -3.11861
   D42        1.07653   0.00108   0.00000   0.02753   0.02766   1.10419
   D43        1.01849  -0.00152   0.00000  -0.01690  -0.01604   1.00245
   D44       -3.08244   0.00126   0.00000  -0.00055  -0.00043  -3.08286
   D45       -1.03890  -0.00076   0.00000  -0.01661  -0.01760  -1.05650
   D46       -0.85946   0.00285   0.00000   0.04146   0.04176  -0.81770
   D47       -2.95637   0.00670   0.00000   0.08305   0.08262  -2.87375
   D48        1.26339   0.00039   0.00000   0.00324   0.00313   1.26652
   D49        1.26062  -0.00137   0.00000  -0.01048  -0.01022   1.25040
   D50       -0.83630   0.00248   0.00000   0.03111   0.03064  -0.80566
   D51       -2.89972  -0.00383   0.00000  -0.04869  -0.04885  -2.94857
   D52       -3.00518  -0.00209   0.00000   0.00005   0.00063  -3.00455
   D53        1.18110   0.00176   0.00000   0.04164   0.04149   1.22259
   D54       -0.88233  -0.00455   0.00000  -0.03817  -0.03800  -0.92032
   D55        1.01729  -0.00275   0.00000  -0.04360  -0.04296   0.97433
   D56       -3.06318   0.00061   0.00000  -0.01868  -0.01870  -3.08188
   D57       -1.02575  -0.00054   0.00000  -0.02588  -0.02650  -1.05225
   D58       -0.81222  -0.00069   0.00000  -0.02669  -0.02761  -0.83982
   D59        1.29989  -0.00132   0.00000  -0.00682  -0.00573   1.29416
   D60       -2.93434   0.00114   0.00000   0.00643   0.00626  -2.92808
   D61        1.01076   0.00118   0.00000   0.03302   0.03415   1.04491
   D62       -3.12463  -0.00074   0.00000  -0.00546  -0.00521  -3.12984
   D63       -1.08559   0.00051   0.00000   0.00144   0.00005  -1.08555
         Item               Value     Threshold  Converged?
 Maximum Force            0.019652     0.000450     NO 
 RMS     Force            0.005879     0.000300     NO 
 Maximum Displacement     0.305671     0.001800     NO 
 RMS     Displacement     0.095277     0.001200     NO 
 Predicted change in Energy=-1.107381D-02
 GradGradGradGradGradGradGradGradGradGradGradGradGradGradGradGradGradGrad

                          Input orientation:                          
 ---------------------------------------------------------------------
 Center     Atomic      Atomic             Coordinates (Angstroms)
 Number     Number       Type             X           Y           Z
 ---------------------------------------------------------------------
      1          6           0       -0.002305   -0.043698   -0.036996
      2          6           0        1.541997   -0.046066   -0.021654
      3          6           0       -0.620982    0.739704   -1.192977
      4          6           0        2.213882   -0.730900    1.171620
      5          1           0        1.872379    0.998747   -0.005473
      6          1           0       -0.342603    0.414919    0.894365
      7          6           0       -0.164187    2.175131   -1.303629
      8          1           0       -1.705426    0.731324   -1.057377
      9          6           0        1.889791   -0.144988    2.534187
     10          1           0        3.291073   -0.632897    1.005136
     11          1           0        0.905590    2.213527   -1.536490
     12          1           0       -0.336360    2.687959   -0.358871
     13          1           0        1.982262    0.939092    2.493198
     14          1           0        2.617884   -0.520556    3.259808
     15          8           0       -0.904222    2.871509   -2.294474
     16          1           0       -0.907539    2.311643   -3.074388
     17          8           0       -0.333866    0.124020   -2.461168
     18          1           0       -0.678712   -0.772605   -2.393828
     19          8           0       -0.568879   -1.341594   -0.174514
     20          1           0       -0.082391   -1.920758    0.421346
     21          8           0        2.109886   -0.707521   -1.146580
     22          1           0        1.548914   -0.501361   -1.905323
     23          8           0        1.898984   -2.125889    1.230611
     24          1           0        2.163501   -2.483632    0.376905
     25          8           0        0.571343   -0.431841    2.976511
     26          1           0        0.494187   -1.386769    3.022556
 ---------------------------------------------------------------------
                    Distance matrix (angstroms):
                    1          2          3          4          5
     1  C    0.000000
     2  C    1.544380   0.000000
     3  C    1.527341   2.582229   0.000000
     4  C    2.616196   1.531121   3.973720   0.000000
     5  H    2.145256   1.095923   2.773827   2.119871   0.000000
     6  H    1.092505   2.145534   2.130722   2.815207   2.461038
     7  C    2.560032   3.080298   1.510416   4.497453   2.686389
     8  H    2.131305   3.496114   1.092921   4.739990   3.738811
     9  C    3.193943   2.581293   4.580220   1.518196   2.785374
    10  H    3.504216   2.111382   4.692537   1.094377   2.386689
    11  H    2.857939   2.793832   2.149553   4.208935   2.180454
    12  H    2.770767   3.334191   2.138326   4.531527   2.803008
    13  H    3.362479   2.736576   4.517136   2.142216   2.501797
    14  H    4.238125   3.485781   5.648522   2.137286   3.677788
    15  O    3.795799   4.434178   2.416219   5.891836   4.056633
    16  H    3.948775   4.569267   2.468363   6.085139   4.343947
    17  O    2.452482   3.082048   1.438684   4.518745   3.415128
    18  H    2.558024   3.329657   1.931957   4.591433   3.917906
    19  O    1.422832   2.481443   2.317711   3.150997   3.386076
    20  H    1.933868   2.519793   3.158193   2.692869   3.539323
    21  O    2.476527   1.423193   3.090995   2.320649   2.066370
    22  H    2.471109   1.937925   2.599256   3.156335   2.442209
    23  O    3.091479   2.453828   4.520578   1.431305   3.360351
    24  H    3.288663   2.546929   4.539578   1.925144   3.515384
    25  O    3.092079   3.174899   4.492080   2.458658   3.554083
    26  H    3.378047   3.487492   4.851413   2.610264   4.093782
                    6          7          8          9         10
     6  H    0.000000
     7  C    2.821587   0.000000
     8  H    2.401395   2.126179   0.000000
     9  C    2.825968   4.932606   5.156825   0.000000
    10  H    3.783357   5.015399   5.574949   2.130644   0.000000
    11  H    3.271396   1.095500   3.040375   4.806418   4.500279
    12  H    2.595641   1.088671   2.488107   4.620727   5.103613
    13  H    2.869847   4.533313   5.123358   1.088788   2.529519
    14  H    3.903193   5.985950   6.236690   1.094393   2.355706
    15  O    4.064350   1.419285   2.598601   6.342060   6.385043
    16  H    4.434830   1.925304   2.683722   6.731731   6.552951
    17  O    3.368131   2.361301   2.054416   5.474540   5.072313
    18  H    3.512179   3.184717   2.258771   5.592535   5.227969
    19  O    2.068585   3.715647   2.523525   3.848895   4.097933
    20  H    2.397258   4.445058   3.443023   3.392191   3.657821
    21  O    3.382312   3.675017   4.078583   3.730005   2.455739
    22  H    3.500809   3.234248   3.581795   4.466817   3.394582
    23  O    3.404920   5.401649   5.137152   2.371364   2.053722
    24  H    3.866513   5.472330   5.230842   3.193437   2.256393
    25  O    2.426444   5.065264   4.775865   1.419944   3.365066
    26  H    2.911270   5.642380   5.096123   1.930863   3.529996
                   11         12         13         14         15
    11  H    0.000000
    12  H    1.776039   0.000000
    13  H    4.361398   4.070484   0.000000
    14  H    5.780280   5.667183   1.766997   0.000000
    15  O    2.069517   2.025516   5.915051   7.400093   0.000000
    16  H    2.379537   2.800338   6.421281   7.782801   0.960066
    17  O    2.599484   3.315636   5.529424   6.469766   2.811012
    18  H    3.487410   4.029115   5.821830   6.549402   3.652437
    19  O    4.082637   4.040465   4.338955   4.756483   4.728311
    20  H    4.679908   4.681188   4.090734   4.160399   5.569283
    21  O    3.183532   4.258390   3.996949   4.439513   4.817879
    22  H    2.814342   4.014666   4.648622   5.274623   4.188743
    23  O    5.241584   5.540428   3.315896   2.685433   6.727419
    24  H    5.225583   5.791030   4.028223   3.517280   6.724933
    25  O    5.241838   4.656377   2.025769   2.067960   6.393175
    26  H    5.823768   5.359782   2.811443   2.305797   6.954084
                   16         17         18         19         20
    16  H    0.000000
    17  O    2.343252   0.000000
    18  H    3.166719   0.963011   0.000000
    19  O    4.676548   2.726177   2.293723   0.000000
    20  H    5.551058   3.543056   3.098235   0.962887   0.000000
    21  O    4.683657   2.896812   3.055509   2.919374   2.955743
    22  H    3.913293   2.060322   2.296634   2.861248   3.176356
    23  O    6.789792   4.865895   4.648919   2.946157   2.150078
    24  H    6.658631   4.592532   4.322354   3.012344   2.315779
    25  O    6.806407   5.540463   5.524427   3.472278   3.028714
    26  H    7.267448   5.747989   5.575850   3.369482   2.717329
                   21         22         23         24         25
    21  O    0.000000
    22  H    0.965858   0.000000
    23  O    2.776200   3.549045   0.000000
    24  H    2.340610   3.084750   0.962686   0.000000
    25  O    4.409421   4.979235   2.771388   3.674610   0.000000
    26  H    4.522561   5.116677   2.393912   3.314994   0.959145
                   26
    26  H    0.000000
 Stoichiometry    C6H14O6
 Framework group  C1[X(C6H14O6)]
 Deg. of freedom    72
 Full point group                 C1      NOp   1
 Largest Abelian subgroup         C1      NOp   1
 Largest concise Abelian subgroup C1      NOp   1
                         Standard orientation:                         
 ---------------------------------------------------------------------
 Center     Atomic      Atomic             Coordinates (Angstroms)
 Number     Number       Type             X           Y           Z
 ---------------------------------------------------------------------
      1          6           0       -0.217500    0.139795    0.585042
      2          6           0        0.448709   -0.233751   -0.757246
      3          6           0       -1.744532    0.136192    0.554525
      4          6           0        1.976449   -0.147355   -0.810886
      5          1           0        0.072323    0.461678   -1.516033
      6          1           0        0.106788    1.149739    0.846613
      7          6           0       -2.360310    1.006823   -0.515136
      8          1           0       -2.097237    0.483747    1.528836
      9          6           0        2.567407    1.224838   -0.541122
     10          1           0        2.257543   -0.446883   -1.825248
     11          1           0       -2.102113    0.623383   -1.508327
     12          1           0       -1.982223    2.023495   -0.422220
     13          1           0        2.027510    1.971690   -1.120935
     14          1           0        3.610953    1.228435   -0.870814
     15          8           0       -3.770538    1.073815   -0.369745
     16          1           0       -4.075168    0.170275   -0.257750
     17          8           0       -2.265128   -1.189004    0.348013
     18          1           0       -1.907007   -1.719258    1.067715
     19          8           0        0.095701   -0.759799    1.641966
     20          1           0        1.042412   -0.928038    1.591124
     21          8           0        0.177778   -1.571258   -1.161164
     22          1           0       -0.734282   -1.761432   -0.906484
     23          8           0        2.592984   -1.056050    0.107152
     24          1           0        2.244000   -1.924105   -0.119686
     25          8           0        2.487102    1.619893    0.820393
     26          1           0        2.971970    0.967244    1.329227
 ---------------------------------------------------------------------
 Rotational constants (GHZ):           1.5161247           0.5326945           0.4929944
 Standard basis: def2TZVPP (5D, 7F)
 There are   642 symmetry adapted cartesian basis functions of A   symmetry.
 There are   568 symmetry adapted basis functions of A   symmetry.
   568 basis functions,   850 primitive gaussians,   642 cartesian basis functions
    49 alpha electrons       49 beta electrons
       nuclear repulsion energy       839.3829737533 Hartrees.
 NAtoms=   26 NActive=   26 NUniq=   26 SFac= 1.00D+00 NAtFMM=   60 NAOKFM=F Big=F
 Integral buffers will be    131072 words long.
 Raffenetti 2 integral format.
 Two-electron integral symmetry is turned on.
 Nuclear repulsion after empirical dispersion term =      839.3634955688 Hartrees.
 One-electron integrals computed using PRISM.
   1 Symmetry operations used in ECPInt.
 ECPInt:  NShTT=   23436 NPrTT=   62434 LenC2=   21991 LenP2D=   45922.
 LDataN:  DoStor=T MaxTD1= 6 Len=  172
[...]
 .00294010,0.00031580,-0.00051299,-0.00171774,-0.00018152,0.00173704,0.
 31506317,-0.06730053,-0.20786736,-0.01508048,-0.00945691,-0.01936954,-
 0.00211668,-0.01269884,-0.04610243,0.00713269,0.00047052,-0.00744685,0
 .00101604,-0.00262427,0.00166351,-0.00001383,-0.01327513,-0.03475956,-
 0.00308705,0.00352479,0.00396662,0.00317810,-0.00055304,0.00141761,-0.
 00144880,-0.00075320,-0.00034992,0.00024953,-0.00014488,0.00124835,-0.
 00056933,-0.00049783,-0.00036363,0.00013172,0.00014297,0.00080118,-0.0
 0013258,0.00022924,0.00051989,0.00049146,0.00014213,0.00019980,-0.0003
 7849,0.00068712,-0.00390851,0.00340825,0.00000581,-0.00020623,-0.00078
 051,-0.00090503,0.00227770,-0.00076725,0.00085368,-0.00185340,0.000767
 19,-0.07908449,0.49648370,-0.01492830,0.00590868,-0.07541241,0.0025497
 7,-0.00241711,-0.00040106,0.01056297,0.03333729,-0.00706424,0.00159139
 ,0.00247373,-0.00049883,-0.00023688,0.00059893,0.00111643,-0.01264920,
 -0.02592949,0.00596927,-0.00357718,-0.00171053,-0.00390640,0.00082791,
 -0.00078424,0.00130571,0.00213611,0.00038939,-0.00060690,0.00000998,-0
 .00044697,0.00039648,0.00043067,0.00007839,0.00007201,-0.00011682,0.00
 044291,0.00034698,-0.00004805,-0.00016210,0.00004669,-0.00043475,0.000
 08940,0.00017651,0.00005286,0.00307190,-0.00134721,0.00004124,-0.00042
 457,0.00062598,0.00028473,0.00795133,0.00024443,0.00198707,0.00062437,
 0.00159723,0.20278672,-0.16763331,0.24422999,0.01038958,-0.01220151,0.
 01157895,0.00123809,-0.00323286,0.00149926,-0.00222522,-0.00514117,-0.
 00004215,-0.00380125,-0.00922579,-0.00139944,-0.00038206,0.00070126,-0
 .00040948,-0.00033941,-0.00079599,-0.00069655,0.00145218,0.00051526,0.
 00081797,0.00010940,0.00005575,-0.00020315,0.00143371,0.00042220,-0.00
 155706,0.00048723,0.00133615,-0.00005531,-0.00021554,-0.00002596,0.000
 11431,0.00005170,0.00003037,-0.00005473,-0.00022310,0.00023348,0.00041
 699,-0.00028218,-0.00005462,-0.00001866,-0.00016962,-0.00102686,0.0005
 8146,0.00004978,0.00007713,-0.00018589,-0.00062510,-0.00030750,0.00056
 958,-0.00020170,0.00021849,-0.00066040,-0.19615139,0.17448437,-0.18144
 248,0.18866462,0.02139767,-0.03110941,0.02373249,-0.00174879,0.0019052
 6,0.00103838,-0.00295181,-0.00628087,-0.00133853,-0.00404109,0.0027734
 2,-0.00075681,0.00134953,0.00011753,-0.00019256,0.00044261,-0.00019597
 ,0.00030374,0.00091121,0.00028734,0.00098817,-0.00004654,0.00011812,-0
 .00024658,-0.00123833,-0.00075246,-0.00006267,0.00004570,-0.00104256,0
 .00007228,-0.00008758,-0.00003604,-0.00000972,0.00004853,0.00003867,-0
 .00003070,0.00006663,-0.00004302,-0.00015417,0.00020932,0.00003341,0.0
 0018182,-0.00009649,-0.00031316,0.00019944,0.00001262,-0.00012479,0.00
 003629,0.00032793,0.00145140,-0.00144396,-0.00019489,-0.00013151,0.001
 62069,0.13431553,-0.19877925,0.14432003,-0.15229647,0.23701000,0.00192
 647,-0.00049539,-0.00035521,0.00002624,-0.00010265,0.00218176,0.000135
 10,0.00069888,-0.00131859,-0.00104966,-0.00258991,0.00063208,-0.000838
 68,-0.00028100,-0.00024585,-0.00010840,-0.00228414,0.00026162,-0.00024
 763,-0.00011681,-0.00006358,-0.00000996,-0.00003460,-0.00003602,-0.002
 37957,-0.00074630,0.00017639,0.00016724,0.00049113,-0.00030264,-0.0000
 3200,0.00000290,0.00002154,0.00003696,0.00005704,0.00004977,0.00024059
 ,0.00026295,0.00007125,0.00037328,0.00001409,-0.00016408,0.00003808,-0
 .00001305,0.00013825,-0.00000735,0.00004542,-0.00000295,0.00052359,0.0
 0075301,0.00035390,-0.00052103,0.00027848,0.00067947,-0.16931149,0.170
 50317,-0.17035776,0.16764627,-0.16765957,0.17653292,-0.01497138,0.0215
 8627,0.04011728,-0.10988899,0.02792085,0.01412657,0.00378013,-0.002914
 96,-0.00195774,0.00830494,-0.00767683,-0.01305148,0.00590988,0.0036608
 3,-0.00128851,-0.00886274,0.00000409,-0.00081990,-0.00115292,-0.000641
 86,0.00056433,0.00028493,-0.00003567,0.00053551,-0.00285717,0.00276492
 ,-0.00178831,0.00218334,-0.00119295,0.00068552,0.00027883,0.00033115,-
 0.00014067,0.00004417,0.00002403,-0.00008307,-0.00007412,0.00015017,0.
 00013656,0.00022457,-0.00009815,-0.00105788,0.00042438,0.00089968,-0.0
 0055037,-0.00020564,-0.00056304,0.00037123,-0.01307707,0.00445756,-0.0
 0640027,0.00048597,0.00106830,0.00042683,0.00229596,-0.00027466,0.0007
 9326,-0.00113710,0.00040988,-0.00108542,0.36331190,0.00164110,-0.00600
 436,-0.00874269,0.04090440,-0.09924011,-0.04895940,-0.00190446,-0.0005
 3777,-0.00075592,-0.00306937,0.00068342,0.00772924,0.01630421,-0.01197
 171,-0.03593511,0.00133016,0.00154843,0.00090913,-0.00179455,-0.000409
 39,-0.00097056,0.00004155,0.00016387,0.00009975,0.00092755,-0.00116872
 ,0.00129576,-0.00044774,0.00034640,-0.00022000,0.00046299,0.00036955,-
 0.00040483,0.00022458,0.00027653,0.00016285,-0.00002603,0.00051324,0.0
 0058685,-0.00004859,0.00031141,0.00023262,0.00100544,-0.00005740,0.000
 76577,-0.00017731,-0.00019856,-0.00007479,0.00196476,0.00417248,0.0017
 7906,0.00189145,-0.00092022,0.00032117,-0.00086135,0.00620390,0.003067
 68,0.00147528,-0.00057656,-0.00104521,-0.11420254,0.12708471,0.0088519
 9,-0.00892691,-0.01490283,0.05439687,-0.06154991,-0.17914137,0.0001620
 3,-0.00293652,-0.00782902,0.01443975,-0.01678086,-0.05367662,0.0059735
 0,-0.01584497,-0.01542632,0.00236355,0.00002796,0.00170437,0.00111696,
 0.00049053,-0.00032415,0.00007311,0.00009044,0.00157882,-0.00716286,0.
 00601216,-0.00153135,0.00116967,-0.00099292,0.00224701,-0.00058112,-0.
 00060607,-0.00036432,-0.00061194,0.00067419,0.00041801,0.00008371,0.00
 005281,0.00093088,0.00057435,-0.00070532,-0.00290848,-0.00018999,0.000
 10777,0.00093437,0.00039429,-0.00052853,0.00007557,-0.01223145,0.00531
 495,0.00406354,0.00075241,0.00092995,-0.00079752,0.00050027,0.00179540
 ,0.00374712,-0.00086426,-0.00020441,-0.00076075,0.17361847,0.04577341,
 0.55073926,0.00142877,0.00056279,0.00429834,0.01260694,-0.00421615,0.0
 1489137,-0.00390317,0.00678597,0.00856949,-0.00231489,0.00263866,0.004
 64143,-0.00043289,0.00129744,0.00078180,-0.00061212,0.00008593,-0.0007
 1774,0.00139690,0.00078613,-0.00054584,0.00042745,-0.00066373,-0.00144
 040,0.00198571,-0.00092084,0.00057632,0.00003504,0.00020086,-0.0002365
 2,-0.00028664,-0.00019753,0.00029443,-0.00007316,-0.00060532,-0.000059
 64,0.00000049,-0.00000818,-0.00012213,-0.00018635,0.00012133,0.0006538
 0,-0.00074788,-0.00084295,-0.00012114,0.00014422,0.00101746,-0.0004580
 9,0.00720897,-0.00604450,-0.00179074,-0.00357678,-0.00187038,-0.000388
 48,-0.00124875,0.00011660,-0.00189239,0.00102532,-0.00025678,0.0002469
 1,-0.23777028,0.05600751,-0.24571524,0.22632211,0.00064818,0.00305732,
 -0.00032236,-0.01216574,0.00019902,-0.01506431,0.00356470,-0.00076267,
 -0.00174852,0.00090249,-0.00181744,-0.00007939,0.00010049,-0.00117242,
 -0.00247713,0.00004738,-0.00043720,-0.00000347,0.00217902,-0.00017157,
 0.00014785,-0.00021691,-0.00016271,0.00006854,-0.00011911,0.00019599,-
 0.00015130,-0.00000992,-0.00012247,0.00004557,-0.00087380,-0.00102848,
 0.00006726,-0.00049457,0.00016243,0.00018539,-0.00000810,0.00008636,0.
 00004354,0.00000169,0.00009635,-0.00009595,-0.00094102,0.00020549,-0.0
 0026918,0.00033241,-0.00000612,0.00013478,-0.00134954,-0.00548451,-0.0
 0013070,-0.00408805,0.00155552,-0.00029547,0.00109189,-0.00138078,-0.0
 0079206,-0.00020244,-0.00005919,0.00075538,0.06533473,-0.02820764,0.05
 024338,-0.05408276,0.03392680,0.00162446,0.00051665,0.00177530,-0.0200
 9688,0.00286531,-0.03362818,0.00373725,0.00112553,0.00449549,0.0022652
 6,-0.00299581,-0.00475977,-0.00024461,0.00079452,0.00047278,-0.0017209
 8,0.00009226,0.00005229,0.00026890,-0.00041252,0.00003868,0.00003002,-
 0.00047530,-0.00135770,-0.00096963,0.00079937,-0.00055534,0.00004891,-
 0.00011376,0.00013099,-0.00003261,-0.00012079,0.00033320,0.00004329,-0
 .00025451,-0.00007869,-0.00002546,0.00000945,0.00004086,0.00009395,-0.
 00014310,-0.00028025,-0.00034816,0.00024336,-0.00067973,-0.00022010,0.
 00037841,0.00004804,0.00063899,-0.00175509,-0.00665266,0.00002130,-0.0
 0079953,0.00114638,-0.00102433,0.00028843,-0.00014800,0.00040446,0.000
 19122,-0.00058311,-0.20319494,0.03047016,-0.28677710,0.21869269,-0.031
 01154,0.32613122,-0.00230245,-0.00746478,0.00237617,0.00823385,0.01251
 099,0.00215212,0.00128846,0.00089346,-0.00001641,-0.07993154,-0.026534
 02,0.01001768,-0.00009046,0.00233819,-0.00275589,0.00002220,0.00079341
 ,0.00017126,-0.00013724,-0.00042684,-0.00020350,0.00029529,-0.00025932
 ,0.00029289,0.00021221,0.00753841,0.00349694,-0.00115843,-0.04091715,-
 0.00299355,0.00003054,0.00010751,-0.00003892,-0.00001545,-0.00003042,0
 .00001968,0.00013763,0.00103473,0.00177728,0.00006191,-0.00019082,0.00
 034113,-0.00006085,0.00052156,-0.00041506,-0.00003970,-0.00012815,0.00
 015846,0.00032655,0.00053386,-0.00048764,0.00002562,-0.00029137,0.0010
 1805,-0.01056360,0.00865260,-0.00593979,0.00557130,0.00074075,0.000095
 26,0.00287916,-0.00006442,0.00067871,-0.00069551,-0.00058579,-0.000015
 48,0.11892985,-0.00474131,-0.00227035,-0.00013525,-0.00566893,-0.04606
 611,-0.00113085,0.00025924,0.00024775,-0.00095034,-0.04194754,-0.20781
 922,0.01850617,0.00319645,-0.00207046,0.00618801,0.00011990,0.00027689
 ,0.00026502,-0.00091449,0.00024734,-0.00030020,0.00037121,-0.00004614,
 0.00034014,-0.00362541,-0.02974757,-0.00624465,-0.01089983,-0.02622515
 ,-0.00295564,0.00049873,0.00008823,-0.00033197,-0.00014976,0.00015297,
 0.00004560,0.00093518,0.00032334,-0.00306204,-0.00035185,0.00145979,0.
 00018494,0.00076308,-0.00024024,0.00068380,-0.00006025,-0.00005163,-0.
 00014673,0.00022662,0.00061583,0.00088757,-0.00003596,-0.00042889,-0.0
 0002929,0.00315221,0.00670428,0.00012904,0.00429985,-0.00629980,0.0008
 3717,0.00038016,0.00402339,-0.00093181,-0.00059261,0.00026001,-0.00072
 761,0.02067671,0.38064527,0.00077100,-0.00331223,0.00100086,0.00717161
 ,0.02372578,-0.00126497,0.00077825,-0.00008531,-0.00030711,0.00534347,
 -0.02442789,-0.09326390,-0.00245789,0.00305288,-0.00339017,-0.00050435
 ,0.00066693,-0.00007278,0.00044480,-0.00024700,-0.00010963,-0.00001071
 ,-0.00006845,0.00009426,-0.00605835,-0.04519905,-0.00419772,-0.0005662
 7,0.00286581,0.00362263,-0.00023140,-0.00008520,0.00012268,-0.00002422
 ,0.00002016,0.00002450,0.00253234,-0.00247443,-0.00724320,-0.00023297,
 0.00078213,0.00262548,-0.00036737,0.00034660,-0.00029714,0.00004921,-0
 .00009496,0.00011715,-0.00072333,0.00046124,-0.00010470,0.00023181,-0.
 00007110,0.00033016,-0.00602360,0.00314033,0.00098550,0.00294202,-0.00
 035643,-0.00446217,-0.00065890,0.00730681,-0.00066922,0.00065130,0.001
 01825,0.00140438,-0.12986316,0.13125741,0.55226112,0.00026101,0.002082
 64,0.00011579,0.00046682,0.00091760,0.00078166,-0.00018109,-0.00014062
 ,-0.00012773,0.00280893,-0.00531736,-0.00889050,-0.00005904,-0.0003632
 9,0.00025853,-0.00001506,-0.00039210,-0.00003462,0.00003983,0.00019834
 ,-0.00002179,-0.00000320,0.00002383,-0.00001084,-0.00118767,-0.0023771
 1,0.00065341,0.00013763,-0.00068750,-0.00106136,-0.00000773,-0.0000110
 9,0.00000342,0.00000335,0.00000286,-0.00000206,0.00047938,-0.00022174,
 -0.00041900,0.00000235,0.00011391,0.00012931,0.00004224,-0.00023693,0.
 00020119,0.00001333,0.00006953,-0.00007836,-0.00005484,-0.00022648,0.0
 0017171,-0.00017830,0.00018999,-0.00033465,0.00091011,-0.00210664,-0.0
 0118388,-0.00392602,0.00191049,0.00352045,-0.00222859,-0.00180559,0.00
 002250,0.00000433,0.00088394,-0.00011968,-0.04657034,0.03327908,0.1292
 0209,0.04858906,0.00085263,-0.00009485,0.00008425,0.00237232,-0.003315
 90,-0.00286132,0.00022765,-0.00021585,0.00007579,0.01056652,-0.0199400
 0,-0.04311411,-0.00036275,0.00072797,-0.00014217,-0.00032188,0.0000237
 1,0.00000221,0.00029846,-0.00018433,0.00012005,-0.00010257,0.00004271,
 -0.00005417,-0.00222589,-0.00841242,0.00096589,-0.00083020,0.00089843,
 -0.00019061,-0.00011385,-0.00009120,0.00006021,-0.00002366,-0.00000642
 ,0.00000316,0.00044474,-0.00041037,-0.00194298,-0.00010656,0.00014299,
 0.00026173,-0.00024671,0.00022998,-0.00026555,0.00004563,-0.00005497,0
 .00009462,-0.00082750,0.00014311,-0.00039175,0.00017170,0.00019467,0.0
 0018396,-0.00096373,-0.00040761,0.00008892,0.00126768,0.00089141,-0.00
 014211,-0.00130015,0.00305487,-0.00179982,0.00076081,0.00106968,0.0010
 1046,0.01719797,-0.07559927,-0.09701443,-0.02686231,0.10045167,-0.0001
 1445,-0.00047133,-0.00051428,-0.00063007,0.00379221,0.00377016,-0.0002
 9703,0.00037092,0.00053645,0.00102927,-0.00351956,-0.00308678,0.000186
 44,-0.00042434,-0.00113431,0.00028399,-0.00005299,0.00000047,-0.000118
 60,-0.00000494,-0.00008848,0.00003203,-0.00003082,-0.00009099,-0.00054
 012,-0.00061055,0.00010534,0.00058378,0.00155614,0.00038606,0.00001186
 ,0.00009179,-0.00000086,0.00004045,-0.00004127,-0.00000946,0.00014930,
 0.00034446,-0.00000329,0.00004764,0.00010774,0.00001586,0.00005317,-0.
 00004492,-0.00001144,-0.00003894,0.00006097,-0.00001588,0.00078625,-0.
 00040601,-0.00020429,-0.00027659,0.00004791,0.00007728,-0.00057512,0.0
 0056800,-0.00118132,0.00154224,-0.00049633,0.00139396,0.00086313,-0.00
 276820,-0.00062757,-0.00072454,-0.00027111,-0.00076682,0.12111949,-0.1
 4232172,-0.44972248,-0.12248313,0.14425601,0.45058060,-0.00233550,-0.0
 0035081,0.00129918,-0.00160869,0.00195479,-0.00204799,0.00094714,-0.00
 031389,0.00011130,-0.02677284,-0.00877920,0.01367681,0.00013682,0.0003
 2444,-0.00015331,0.00022865,-0.00119022,-0.00084898,-0.00040323,-0.000
 12594,-0.00001872,0.00027431,-0.00014185,0.00025623,-0.22879667,-0.009
 50237,0.04223461,0.00104577,0.00138762,0.00368119,0.00018223,0.0000855
 7,-0.00015856,-0.00007639,-0.00004313,0.00000396,-0.01119288,-0.007268
 91,0.00478005,-0.04240998,-0.01091857,0.01087608,0.00026019,0.00015467
 ,-0.00005566,-0.00007145,-0.00006007,0.00004025,0.00052623,-0.00001010
 ,-0.00089046,-0.00011356,-0.00002159,0.00029949,0.00220815,0.00112511,
 -0.00253411,-0.00242195,0.00105380,0.00156373,0.00208852,-0.00000790,0
 .00252139,-0.00093407,0.00002050,0.00008090,0.00394695,0.00041743,-0.0
 0137750,0.00017093,-0.00049931,-0.00080679,0.34685176,0.00043478,-0.00
 371264,0.00122360,-0.00024551,-0.00037215,-0.00069068,-0.00038849,0.00
 047562,-0.00006297,0.00490546,0.00040055,-0.00104690,0.00013656,0.0004
 5570,-0.00019045,-0.00038159,0.00039447,0.00162961,-0.00009469,-0.0000
 0571,-0.00021679,0.00006369,-0.00003178,0.00004337,-0.05704399,-0.1060
 1383,0.01770247,0.00051541,0.00042781,-0.00196693,0.00004076,0.0000122
 3,-0.00002527,-0.00004601,0.00005520,0.00002279,-0.04194616,-0.0074978
 2,0.01265205,0.00572472,0.00793427,-0.00524524,0.00011536,0.00000756,0
 .00013556,-0.00001970,-0.00001773,-0.00001265,0.00018359,0.00025319,0.
 00050496,-0.00004399,-0.00012509,0.00012957,0.00061536,0.00172963,-0.0
 0178838,-0.00041272,0.00012361,0.00089502,-0.00007737,0.00069171,0.000
 75000,-0.00011722,-0.00001137,0.00001022,0.00298443,0.00240347,-0.0012
 0944,0.00104035,0.00092421,0.00014009,0.08330936,0.63731863,-0.0020445
 5,0.00195421,-0.00185815,-0.00050712,0.00041687,0.00370354,0.00085056,
 -0.00103849,0.00031582,0.04105519,0.00910318,-0.00669199,0.00023388,0.
 00015597,-0.00026436,0.00026539,-0.00067437,-0.00264478,0.00012543,-0.
 00054022,0.00015638,-0.00013796,0.00005502,-0.00007841,0.04213785,0.00
 200394,-0.07581491,0.00204252,-0.00293727,-0.00700856,-0.00006063,0.00
 000907,0.00001670,-0.00000255,-0.00003045,0.00000273,0.00223898,0.0020
 6053,0.00096789,-0.01283065,-0.00605408,0.01150848,-0.00024979,0.00053
 001,-0.00046030,0.00003208,-0.00013885,0.00016072,-0.00051818,0.000230
 39,-0.00146266,0.00025757,0.00011680,0.00042119,-0.00035913,0.00057452
 ,-0.00152691,-0.00021722,0.00094050,-0.00051877,-0.00004576,-0.0002499
 8,-0.00095287,-0.00009536,-0.00004059,0.00037887,0.00027419,0.00039916
 ,0.00151666,0.00040552,0.00116878,0.00074847,-0.08358972,-0.01973570,0
 .08651952,0.00043525,0.00127664,-0.00022730,0.00015120,-0.00025554,0.0
 0015590,0.00002855,-0.00017716,0.00000234,0.00011154,-0.00195859,0.001
 02208,-0.00010801,0.00012268,-0.00008708,0.00021259,-0.00006283,0.0000
 9358,0.00007964,0.00001551,0.00006471,-0.00006724,0.00004423,-0.000055
 13,-0.01033075,-0.04715569,0.00295721,0.00014008,0.00016221,-0.0003183
 6,-0.00003889,-0.00002413,0.00002031,0.00000874,-0.00001172,-0.0000032
 5,-0.00647393,-0.00103176,0.00206506,0.00038601,-0.00041244,-0.0009567
 4,-0.00006896,-0.00001433,-0.00002866,0.00001879,0.00000872,-0.0000025
 5,-0.00017306,-0.00004669,-0.00005575,0.00005629,0.00004210,-0.0000891
 5,-0.00113015,-0.00075950,0.00092915,0.00162871,-0.00028344,-0.0009489
 6,-0.00027066,0.00022887,-0.00033666,0.00019625,0.00003036,0.00006251,
 -0.00039597,0.00041209,-0.00101787,0.00048256,0.00058095,-0.00012365,-
 0.04173045,0.00074761,0.01073945,0.05685186,0.00004173,0.00004996,0.00
 021314,-0.00009712,-0.00041098,0.00046471,0.00002445,-0.00009358,0.000
 10374,0.00141035,0.00139139,-0.00013754,0.00005738,-0.00002268,0.00006
 235,0.00003157,-0.00022992,0.00007606,0.00002415,-0.00005978,0.0000505
 1,-0.00001676,0.00001097,-0.00001983,0.00097764,-0.01128956,0.00002339
 ,0.00007319,-0.00054560,-0.00055221,-0.00000609,-0.00000101,0.00000333
 ,0.00000321,-0.00001262,-0.00000468,-0.00218555,0.00194851,0.00008091,
 0.00158627,0.00117888,-0.00061983,-0.00003812,0.00005871,-0.00007811,0
 .00000483,-0.00001164,0.00002386,-0.00005466,-0.00001425,-0.00021423,0
 .00003283,0.00003783,0.00006218,-0.00002604,-0.00042108,-0.00048324,-0
 .00019337,0.00099442,-0.00008392,-0.00001444,-0.00015146,-0.00045488,0
 .00003746,0.00000957,0.00001420,0.00036848,-0.00058372,0.00000158,0.00
 003621,-0.00006223,0.00012785,-0.05059944,-0.53581974,0.01172103,0.048
 52185,0.54404962,0.00027367,0.00222355,-0.00047143,-0.00001576,0.00004
 911,-0.00041809,-0.00017296,-0.00011539,-0.00015491,0.00190675,0.00432
 339,0.00010664,-0.00009303,-0.00030001,0.00012015,0.00014603,-0.000112
 08,-0.00012161,-0.00001719,0.00023382,-0.00000087,0.00001656,0.0000114
 1,0.00000452,0.00203866,0.01293420,-0.00103858,-0.00046708,-0.00054344
 ,0.00021177,0.00001060,-0.00000447,-0.00000753,0.00000749,0.00000011,-
 0.00000779,0.00153718,0.00005696,-0.00025625,0.00010011,-0.00120776,0.
 00064511,0.00009255,-0.00025784,0.00020720,-0.00000965,0.00006725,-0.0
 0007909,0.00011819,-0.00024141,0.00024585,-0.00010532,0.00006344,-0.00
 033083,-0.00019257,-0.00123655,0.00159073,-0.00030674,-0.00067261,-0.0
 0332142,-0.00011550,-0.00037358,0.00025053,0.00001039,0.00004315,-0.00
 018113,-0.00125990,-0.00045595,0.00099979,-0.00069797,-0.00045702,-0.0
 0015638,0.01105665,-0.00364791,-0.00713427,-0.01386116,-0.01038038,0.0
 0929788\\0.00001893,0.00001282,0.00000408,-0.00001904,-0.00000044,0.00
 001865,-0.00001867,0.00001237,0.00001555,-0.00000365,-0.00000458,-0.00
 000173,0.00000286,-0.00000046,0.00000183,-0.00000122,0.00000101,0.0000
 0701,0.00001711,-0.00001719,0.00000254,0.00000017,-0.00000327,-0.00000
 558,0.00001049,-0.00001496,-0.00000569,0.00000356,-0.00000287,0.000003
 20,-0.00000288,0.00000344,-0.00000049,-0.00000469,0.00000132,-0.000003
 99,-0.00000535,0.00000031,-0.00000089,-0.00000233,0.00000319,0.0000031
 2,-0.00000683,0.00000983,-0.00000144,0.00000104,-0.00000346,0.00000166
 ,0.00000660,0.00000252,-0.00001708,-0.00000147,-0.00000573,0.00000134,
 -0.00000728,-0.00001170,-0.00000527,-0.00000239,0.00000121,-0.00000206
 ,0.00002023,-0.00000362,-0.00001791,-0.00000212,-0.00000191,-0.0000084
 6,0.00000718,0.00000523,0.00002248,-0.00000440,0.00000751,-0.00001167,
 -0.00001065,0.00001085,0.00000530,0.00000481,-0.00000140,-0.00000450\\
 \@
 The archive entry for this job was punched.


 What some people mistake for the high cost
 of living is really the cost of living high.
                              -- Doug Larson
 Job cpu time:       0 days  9 hours 54 minutes 43.7 seconds.
 Elapsed time:       0 days  0 hours 37 minutes 17.2 seconds.
 File lengths (MBytes):  RWF=    704 Int=      0 D2E=      0 Chk=     27 Scr=      1
 Normal termination of Gaussian 16 at Wed Sep 27 12:24:18 2023.
