 Entering Gaussian System, Link 0=/opt/software/gaussian/g16.c01/g16
 Initial command:
 /opt/software/gaussian/g16.c01/l1.exe "/scratch/arhender/18741221/Gau-30368.inp" -scrdir="/scratch/arhender/18741221/"
 Entering Link 1 = /opt/software/gaussian/g16.c01/l1.exe PID=     30369.
  
 Copyright (c) 1988-2019, Gaussian, Inc.  All Rights Reserved.
  
 This is part of the Gaussian(R) 16 program.  It is based on
 the Gaussian(R) 09 system (copyright 2009, Gaussian, Inc.),
 the Gaussian(R) 03 system (copyright 2003, Gaussian, Inc.),
 the Gaussian(R) 98 system (copyright 1998, Gaussian, Inc.),
 the Gaussian(R) 94 system (copyright 1995, Gaussian, Inc.),
 the Gaussian 92(TM) system (copyright 1992, Gaussian, Inc.),
 the Gaussian 90(TM) system (copyright 1990, Gaussian, Inc.),
 the Gaussian 88(TM) system (copyright 1988, Gaussian, Inc.),
 the Gaussian 86(TM) system (copyright 1986, Carnegie Mellon
 University), and the Gaussian 82(TM) system (copyright 1983,
 Carnegie Mellon University). Gaussian is a federally registered
 trademark of Gaussian, Inc.
  
 This software contains proprietary and confidential information,
 including trade secrets, belonging to Gaussian, Inc.
  
 This software is provided under written license and may be
 used, copied, transmitted, or stored only in accord with that
 written license.
  
 The following legend is applicable only to US Government
 contracts under FAR:
  
                    RESTRICTED RIGHTS LEGEND
  
 Use, reproduction and disclosure by the US Government is
 subject to restrictions as set forth in subparagraphs (a)
 and (c) of the Commercial Computer Software - Restricted
 Rights clause in FAR 52.227-19.
  
 Gaussian, Inc.
 340 Quinnipiac St., Bldg. 40, Wallingford CT 06492
  
  
 ---------------------------------------------------------------
 Warning -- This program may not be used in any manner that
 competes with the business of Gaussian, Inc. or will provide
 assistance to any competitor of Gaussian, Inc.  The licensee
 of this program is prohibited from giving any competitor of
 Gaussian, Inc. access to this program.  By using this program,
 the user acknowledges that Gaussian, Inc. is engaged in the
 business of creating and licensing software in the field of
 computational chemistry and represents and warrants to the
 licensee that it is not a competitor of Gaussian, Inc. and that
 it will not use this program in any manner prohibited above.
 ---------------------------------------------------------------
  

 Cite this work as:
 Gaussian 16, Revision C.01,
 M. J. Frisch, G. W. Trucks, H. B. Schlegel, G. E. Scuseria, 
 M. A. Robb, J. R. Cheeseman, G. Scalmani, V. Barone, 
 G. A. Petersson, H. Nakatsuji, X. Li, M. Caricato, A. V. Marenich, 
 J. Bloino, B. G. Janesko, R. Gomperts, B. Mennucci, H. P. Hratchian, 
 J. V. Ortiz, A. F. Izmaylov, J. L. Sonnenberg, D. Williams-Young, 
 F. Ding, F. Lipparini, F. Egidi, J. Goings, B. Peng, A. Petrone, 
 T. Henderson, D. Ranasinghe, V. G. Zakrzewski, J. Gao, N. Rega, 
 G. Zheng, W. Liang, M. Hada, M. Ehara, K. Toyota, R. Fukuda, 
 J. Hasegawa, M. Ishida, T. Nakajima, Y. Honda, O. Kitao, H. Nakai, 
 T. Vreven, K. Throssell, J. A. Montgomery, Jr., J. E. Peralta, 
 F. Ogliaro, M. J. Bearpark, J. J. Heyd, E. N. Brothers, K. N. Kudin, 
 V. N. Staroverov, T. A. Keith, R. Kobayashi, J. Normand, 
 K. Raghavachari, A. P. Rendell, J. C. Burant, S. S. Iyengar, 
 J. Tomasi, M. Cossi, J. M. Millam, M. Klene, C. Adamo, R. Cammi, 
 J. W. Ochterski, R. L. Martin, K. Morokuma, O. Farkas, 
 J. B. Foresman, and D. J. Fox, Gaussian, Inc., Wallingford CT, 2019.
 
 ******************************************
 Gaussian 16:  ES64L-G16RevC.01  3-Jul-2019
                10-Apr-2024 
 ******************************************
 %chk=QL_zwitterion_opt.chk
 %mem=1600MB
 %nprocs=4
 Will use up to    4 processors via shared memory.
 ----------------------------------------------------
 # opt=calcfc freq wb97xd/def2tzvpp geom=connectivity
 ----------------------------------------------------
 1/10=4,18=20,19=15,26=3,38=1,57=2/1,3;
 2/9=110,12=2,17=6,18=5,40=1/2;
 3/5=44,7=202,11=2,25=1,30=1,71=2,74=-58,140=1/1,2,3;
 4//1;
 5/5=2,38=5/2;
 8/6=4,10=90,11=11/1;
 11/6=1,8=1,9=11,15=111,16=1/1,2,10;
 10/6=1,13=1/2;
 6/7=2,8=2,9=2,10=2,28=1/1;
 7/10=1,25=1/1,2,3,16;
 1/10=4,18=20,19=15,26=3/3(2);
 2/9=110/2;
 99//99;
 2/9=110/2;
 3/5=44,7=202,11=2,25=1,30=1,71=1,74=-58/1,2,3;
 4/5=5,16=3,69=1/1;
 5/5=2,38=5/2;
 7//1,2,3,16;
 1/18=20,19=15,26=3/3(-5);
 2/9=110/2;
 6/7=2,8=2,9=2,10=2,19=2,28=1/1;
 99/9=1/99;
 -------------------------------------------------------------------
 TS Opt product from SN1 like product derived from imag frequency TS
 -------------------------------------------------------------------
 Symbolic Z-matrix:
 Charge =  0 Multiplicity = 1
 Si                    1.05329  -0.25898  -0.17564 
 O                     2.17998  -1.37682  -0.50478 
 H                     2.76326  -1.63884   0.20404 
 O                     0.39036   0.53215  -1.32509 
 O                     1.36913   0.47369   1.23907 
 H                     1.08955   1.40293   1.21958 
 C                    -1.44372  -0.86551   1.1349 
 H                    -1.01918  -0.39878   2.01825 
 H                    -2.05     -1.72353   1.4184 
 C                    -2.20958   0.11429   0.23759 
 H                    -1.78092   1.11441   0.32036 
 H                    -3.24652   0.15764   0.57281 
 O                    -0.32171  -1.41687   0.38053 
 H                    -0.73304  -1.71328  -0.45128 
 O                    -2.17535  -0.3418   -1.09214 
 H                    -1.36563   0.05048  -1.48046 
 

 GradGradGradGradGradGradGradGradGradGradGradGradGradGradGradGradGradGrad
 Berny optimization.
 Initialization pass.
                           ----------------------------
                           !    Initial Parameters    !
                           ! (Angstroms and Degrees)  !
 --------------------------                            --------------------------
 ! Name  Definition              Value          Derivative Info.                !
 --------------------------------------------------------------------------------
 ! R1    R(1,2)                  1.6209         calculate D2E/DX2 analytically  !
 ! R2    R(1,4)                  1.5449         calculate D2E/DX2 analytically  !
 ! R3    R(1,5)                  1.6242         calculate D2E/DX2 analytically  !
 ! R4    R(1,13)                 1.8817         calculate D2E/DX2 analytically  !
 ! R5    R(2,3)                  0.9546         calculate D2E/DX2 analytically  !
 ! R6    R(5,6)                  0.9706         calculate D2E/DX2 analytically  !
 ! R7    R(7,8)                  1.0855         calculate D2E/DX2 analytically  !
 ! R8    R(7,9)                  1.0882         calculate D2E/DX2 analytically  !
 ! R9    R(7,10)                 1.5335         calculate D2E/DX2 analytically  !
 ! R10   R(7,13)                 1.4601         calculate D2E/DX2 analytically  !
 ! R11   R(10,11)                1.0913         calculate D2E/DX2 analytically  !
 ! R12   R(10,12)                1.0906         calculate D2E/DX2 analytically  !
 ! R13   R(10,15)                1.4062         calculate D2E/DX2 analytically  !
 ! R14   R(13,14)                0.9741         calculate D2E/DX2 analytically  !
 ! R15   R(15,16)                0.98           calculate D2E/DX2 analytically  !
 ! A1    A(2,1,4)              120.024          calculate D2E/DX2 analytically  !
 ! A2    A(2,1,5)              110.6587         calculate D2E/DX2 analytically  !
 ! A3    A(2,1,13)              98.2554         calculate D2E/DX2 analytically  !
 ! A4    A(4,1,5)              120.0342         calculate D2E/DX2 analytically  !
 ! A5    A(4,1,13)             102.7957         calculate D2E/DX2 analytically  !
 ! A6    A(5,1,13)              99.3365         calculate D2E/DX2 analytically  !
 ! A7    A(1,2,3)              117.5951         calculate D2E/DX2 analytically  !
 ! A8    A(1,5,6)              111.0009         calculate D2E/DX2 analytically  !
 ! A9    A(8,7,9)              110.176          calculate D2E/DX2 analytically  !
 ! A10   A(8,7,10)             113.3756         calculate D2E/DX2 analytically  !
 ! A11   A(8,7,13)             106.3948         calculate D2E/DX2 analytically  !
 ! A12   A(9,7,10)             112.2078         calculate D2E/DX2 analytically  !
 ! A13   A(9,7,13)             105.3665         calculate D2E/DX2 analytically  !
 ! A14   A(10,7,13)            108.8274         calculate D2E/DX2 analytically  !
 ! A15   A(7,10,11)            110.1817         calculate D2E/DX2 analytically  !
 ! A16   A(7,10,12)            108.6852         calculate D2E/DX2 analytically  !
 ! A17   A(7,10,15)            109.5073         calculate D2E/DX2 analytically  !
 ! A18   A(11,10,12)           108.2842         calculate D2E/DX2 analytically  !
 ! A19   A(11,10,15)           111.0644         calculate D2E/DX2 analytically  !
 ! A20   A(12,10,15)           109.068          calculate D2E/DX2 analytically  !
 ! A21   A(1,13,7)             118.8073         calculate D2E/DX2 analytically  !
 ! A22   A(1,13,14)            104.0878         calculate D2E/DX2 analytically  !
 ! A23   A(7,13,14)            103.3904         calculate D2E/DX2 analytically  !
 ! A24   A(10,15,16)           105.3662         calculate D2E/DX2 analytically  !
 ! D1    D(4,1,2,3)            160.5297         calculate D2E/DX2 analytically  !
 ! D2    D(5,1,2,3)             13.8396         calculate D2E/DX2 analytically  !
 ! D3    D(13,1,2,3)           -89.4517         calculate D2E/DX2 analytically  !
 ! D4    D(2,1,5,6)            146.6825         calculate D2E/DX2 analytically  !
 ! D5    D(4,1,5,6)             -0.0037         calculate D2E/DX2 analytically  !
 ! D6    D(13,1,5,6)          -110.7551         calculate D2E/DX2 analytically  !
 ! D7    D(2,1,13,7)           163.2272         calculate D2E/DX2 analytically  !
 ! D8    D(2,1,13,14)          -82.537          calculate D2E/DX2 analytically  !
 ! D9    D(4,1,13,7)           -73.3076         calculate D2E/DX2 analytically  !
 ! D10   D(4,1,13,14)           40.9281         calculate D2E/DX2 analytically  !
 ! D11   D(5,1,13,7)            50.575          calculate D2E/DX2 analytically  !
 ! D12   D(5,1,13,14)          164.8108         calculate D2E/DX2 analytically  !
 ! D13   D(8,7,10,11)           29.982          calculate D2E/DX2 analytically  !
 ! D14   D(8,7,10,12)          -88.518          calculate D2E/DX2 analytically  !
 ! D15   D(8,7,10,15)          152.4251         calculate D2E/DX2 analytically  !
 ! D16   D(9,7,10,11)          155.5953         calculate D2E/DX2 analytically  !
 ! D17   D(9,7,10,12)           37.0953         calculate D2E/DX2 analytically  !
 ! D18   D(9,7,10,15)          -81.9616         calculate D2E/DX2 analytically  !
 ! D19   D(13,7,10,11)         -88.1985         calculate D2E/DX2 analytically  !
 ! D20   D(13,7,10,12)         153.3015         calculate D2E/DX2 analytically  !
 ! D21   D(13,7,10,15)          34.2446         calculate D2E/DX2 analytically  !
 ! D22   D(8,7,13,1)           -57.9694         calculate D2E/DX2 analytically  !
 ! D23   D(8,7,13,14)         -172.5806         calculate D2E/DX2 analytically  !
 ! D24   D(9,7,13,1)          -174.9513         calculate D2E/DX2 analytically  !
 ! D25   D(9,7,13,14)           70.4374         calculate D2E/DX2 analytically  !
 ! D26   D(10,7,13,1)           64.5287         calculate D2E/DX2 analytically  !
 ! D27   D(10,7,13,14)         -50.0826         calculate D2E/DX2 analytically  !
 ! D28   D(7,10,15,16)         -89.1479         calculate D2E/DX2 analytically  !
 ! D29   D(11,10,15,16)         32.7673         calculate D2E/DX2 analytically  !
 ! D30   D(12,10,15,16)        152.032          calculate D2E/DX2 analytically  !
 --------------------------------------------------------------------------------
 Trust Radius=3.00D-01 FncErr=1.00D-07 GrdErr=1.00D-06 EigMax=2.50D+02 EigMin=1.00D-04
 Number of steps in this run=     79 maximum allowed number of steps=    100.
 GradGradGradGradGradGradGradGradGradGradGradGradGradGradGradGradGradGrad

                          Input orientation:                          
 ---------------------------------------------------------------------
 Center     Atomic      Atomic             Coordinates (Angstroms)
 Number     Number       Type             X           Y           Z
 ---------------------------------------------------------------------
      1         14           0        1.053289   -0.258984   -0.175642
      2          8           0        2.179983   -1.376820   -0.504783
      3          1           0        2.763262   -1.638835    0.204044
      4          8           0        0.390363    0.532148   -1.325086
      5          8           0        1.369125    0.473693    1.239071
      6          1           0        1.089554    1.402926    1.219577
      7          6           0       -1.443718   -0.865511    1.134901
      8          1           0       -1.019184   -0.398783    2.018250
      9          1           0       -2.050001   -1.723529    1.418399
     10          6           0       -2.209584    0.114285    0.237587
     11          1           0       -1.780924    1.114406    0.320356
     12          1           0       -3.246518    0.157635    0.572812
     13          8           0       -0.321708   -1.416869    0.380528
     14          1           0       -0.733041   -1.713280   -0.451276
     15          8           0       -2.175352   -0.341803   -1.092141
     16          1           0       -1.365634    0.050482   -1.480455
 ---------------------------------------------------------------------
                    Distance matrix (angstroms):
                    1          2          3          4          5
     1  Si   0.000000
     2  O    1.620904   0.000000
     3  H    2.229834   0.954621   0.000000
     4  O    1.544857   2.742225   3.561187   0.000000
     5  O    1.624186   2.668879   2.734533   2.745231   0.000000
     6  H    2.170229   3.448107   3.617308   2.778926   0.970574
     7  C    2.884518   4.010138   4.377580   3.371771   3.117115
     8  H    3.021233   4.190098   4.374468   3.745844   2.659390
     9  H    3.783684   4.659571   4.964809   4.309311   4.068214
    10  C    3.310050   4.694977   5.272926   3.062071   3.733538
    11  H    3.188256   4.751405   5.314461   2.785856   3.343256
    12  H    4.384301   5.741313   6.283371   4.119366   4.674180
    13  O    1.881659   2.654023   3.097976   2.686044   2.677730
    14  H    2.319898   2.932879   3.557966   2.658482   3.472640
    15  O    3.357224   4.514996   5.268045   2.720468   4.320058
    16  H    2.765772   3.944683   4.768554   1.827476   3.879927
                    6          7          8          9         10
     6  H    0.000000
     7  C    3.401535   0.000000
     8  H    2.886314   1.085527   0.000000
     9  H    4.435206   1.088184   1.782514   0.000000
    10  C    3.675488   1.533533   2.202510   2.190284   0.000000
    11  H    3.021835   2.167317   2.398506   3.054828   1.091257
    12  H    4.557475   2.147757   2.712915   2.384418   1.090636
    13  O    3.262960   1.460130   2.050635   2.039170   2.434942
    14  H    3.977982   1.933839   2.812177   2.286957   2.448409
    15  O    4.364371   2.401931   3.318811   2.868395   1.406188
    16  H    3.891944   2.772224   3.544405   3.466818   1.915200
                   11         12         13         14         15
    11  H    0.000000
    12  H    1.768364   0.000000
    13  O    2.922377   3.327244   0.000000
    14  H    3.112761   3.296460   0.974142   0.000000
    15  O    2.066704   2.041789   2.600099   2.090913   0.000000
    16  H    2.132445   2.786595   2.589625   2.137812   0.979958
                   16
    16  H    0.000000
 Stoichiometry    C2H8O5Si
 Framework group  C1[X(C2H8O5Si)]
 Deg. of freedom    42
 Full point group                 C1      NOp   1
 Largest Abelian subgroup         C1      NOp   1
 Largest concise Abelian subgroup C1      NOp   1
                         Standard orientation:                         
 ---------------------------------------------------------------------
 Center     Atomic      Atomic             Coordinates (Angstroms)
 Number     Number       Type             X           Y           Z
 ---------------------------------------------------------------------
      1         14           0        1.073122    0.192612    0.137070
      2          8           0        2.251367    0.326632   -0.967968
      3          1           0        2.846688   -0.412409   -1.071472
      4          8           0        0.373003    1.459025    0.678007
      5          8           0        1.354471   -1.065499    1.124987
      6          1           0        1.031191   -0.882707    2.021699
      7          6           0       -1.391824   -1.227343   -0.340645
      8          1           0       -0.989517   -2.009240    0.295874
      9          1           0       -1.956671   -1.665008   -1.161341
     10          6           0       -2.203602   -0.176180    0.426034
     11          1           0       -1.822762   -0.075045    1.443666
     12          1           0       -3.241290   -0.507446    0.480381
     13          8           0       -0.245262   -0.573743   -0.965292
     14          1           0       -0.642429    0.188001   -1.424592
     15          8           0       -2.148342    1.050862   -0.258567
     16          1           0       -1.358270    1.510210    0.095136
 ---------------------------------------------------------------------
 Rotational constants (GHZ):           2.8022899           1.2478965           1.1541736
 Standard basis: def2TZVPP (5D, 7F)
 There are   420 symmetry adapted cartesian basis functions of A   symmetry.
 There are   371 symmetry adapted basis functions of A   symmetry.
   371 basis functions,   562 primitive gaussians,   420 cartesian basis functions
    37 alpha electrons       37 beta electrons
       nuclear repulsion energy       535.7835800627 Hartrees.
 NAtoms=   16 NActive=   16 NUniq=   16 SFac= 1.00D+00 NAtFMM=   60 NAOKFM=F Big=F
 Integral buffers will be    131072 words long.
 Raffenetti 2 integral format.
 Two-electron integral symmetry is turned on.
 Nuclear repulsion after empirical dispersion term =      535.7751266652 Hartrees.
 One-electron integrals computed using PRISM.
   1 Symmetry operations used in ECPInt.
 ECPInt:  NShTT=    9730 NPrTT=   27009 LenC2=    9447 LenP2D=   20979.
 LDataN:  DoStor=T MaxTD1= 6 Len=  172
 NBasis=   371 RedAO= T EigKep=  2.26D-04  NBF=   371
 NBsUse=   371 1.00D-06 EigRej= -1.00D+00 NBFU=   371
 ExpMin= 7.01D-02 ExpMax= 4.48D+04 ExpMxC= 1.53D+03 IAcc=3 IRadAn=         5 AccDes= 0.00D+00
 Harris functional with IExCor= 4639 and IRadAn=       5 diagonalized for initial guess.
 HarFok:  IExCor= 4639 AccDes= 0.00D+00 IRadAn=         5 IDoV= 1 UseB2=F ITyADJ=14
 ICtDFT=  3500011 ScaDFX=  1.000000  1.000000  1.000000  1.000000
 FoFCou: FMM=F IPFlag=           0 FMFlag=      100000 FMFlg1=           0
         NFxFlg=           0 DoJE=T BraDBF=F KetDBF=T FulRan=T
         wScrn=  0.000000 ICntrl=       500 IOpCl=  0 I1Cent=   200000004 NGrid=           0
         NMat0=    1 NMatS0=      1 NMatT0=    0 NMatD0=    1 NMtDS0=    0 NMtDT0=    0
 Petite list used in FoFCou.
 Requested convergence on RMS density matrix=1.00D-08 within 128 cycles.
 Requested convergence on MAX density matrix=1.00D-06.
 Requested convergence on             energy=1.00D-06.
 No special actions if energy rises.
 Integral accuracy reduced to 1.0D-05 until final iterations.
 Initial convergence to 1.0D-05 achieved.  Increase integral accuracy.
 SCF Done:  E(RwB97XD) =  -746.853561332     A.U. after   14 cycles
            NFock= 14  Conv=0.78D-08     -V/T= 2.0034
 DoSCS=F DFT=T ScalE2(SS,OS)=  1.000000  1.000000
 Range of M.O.s used for correlation:     1   371
 NBasis=   371 NAE=    37 NBE=    37 NFC=     0 NFV=     0
 NROrb=    371 NOA=    37 NOB=    37 NVA=   334 NVB=   334

 **** Warning!!: The largest alpha MO coefficient is  0.14944988D+02

   1 Symmetry operations used in ECPInt.
 ECPInt:  NShTT=    9730 NPrTT=   27009 LenC2=    9447 LenP2D=   20979.
 LDataN:  DoStor=T MaxTD1= 7 Len=  274
 Symmetrizing basis deriv contribution to polar:
 IMax=3 JMax=2 DiffMx= 0.00D+00
 G2DrvN: will do    17 centers at a time, making    1 passes.
 Calling FoFCou, ICntrl=  3107 FMM=F I1Cent=   0 AccDes= 0.00D+00.
 End of G2Drv F.D. properties file   721 does not exist.
 End of G2Drv F.D. properties file   722 does not exist.
 End of G2Drv F.D. properties file   788 does not exist.
          IDoAtm=1111111111111111
          Differentiating once with respect to nuclear coordinates.
 CalDSu exits because no D1Ps are significant.
          There are    51 degrees of freedom in the 1st order CPHF.  IDoFFX=6 NUNeed=     0.
     45 vectors produced by pass  0 Test12= 2.42D-14 1.96D-09 XBig12= 8.89D-02 4.56D-02.
 AX will form    45 AO Fock derivatives at one time.
     45 vectors produced by pass  1 Test12= 2.42D-14 1.96D-09 XBig12= 3.39D-02 3.12D-02.
     45 vectors produced by pass  2 Test12= 2.42D-14 1.96D-09 XBig12= 1.25D-03 4.71D-03.
     45 vectors produced by pass  3 Test12= 2.42D-14 1.96D-09 XBig12= 1.76D-05 4.71D-04.
     45 vectors produced by pass  4 Test12= 2.42D-14 1.96D-09 XBig12= 1.92D-07 5.94D-05.
     45 vectors produced by pass  5 Test12= 2.42D-14 1.96D-09 XBig12= 1.72D-09 5.19D-06.
     45 vectors produced by pass  6 Test12= 2.42D-14 1.96D-09 XBig12= 1.30D-11 4.31D-07.
     14 vectors produced by pass  7 Test12= 2.42D-14 1.96D-09 XBig12= 8.60D-14 2.68D-08.
      1 vectors produced by pass  8 Test12= 2.42D-14 1.96D-09 XBig12= 6.60D-16 2.80D-09.
 InvSVY:  IOpt=1 It=  1 EMax= 3.05D-16
 Solved reduced A of dimension   330 with    51 vectors.
 End of Minotr F.D. properties file   721 does not exist.
 End of Minotr F.D. properties file   722 does not exist.
 End of Minotr F.D. properties file   788 does not exist.

 **********************************************************************

            Population analysis using the SCF Density.

 **********************************************************************

 Orbital symmetries:
       Occupied  (A) (A) (A) (A) (A) (A) (A) (A) (A) (A) (A) (A)
                 (A) (A) (A) (A) (A) (A) (A) (A) (A) (A) (A) (A)
                 (A) (A) (A) (A) (A) (A) (A) (A) (A) (A) (A) (A)
                 (A)
       Virtual   (A) (A) (A) (A) (A) (A) (A) (A) (A) (A) (A) (A)
                 (A) (A) (A) (A) (A) (A) (A) (A) (A) (A) (A) (A)
                 (A) (A) (A) (A) (A) (A) (A) (A) (A) (A) (A) (A)
                 (A) (A) (A) (A) (A) (A) (A) (A) (A) (A) (A) (A)
                 (A) (A) (A) (A) (A) (A) (A) (A) (A) (A) (A) (A)
                 (A) (A) (A) (A) (A) (A) (A) (A) (A) (A) (A) (A)
                 (A) (A) (A) (A) (A) (A) (A) (A) (A) (A) (A) (A)
                 (A) (A) (A) (A) (A) (A) (A) (A) (A) (A) (A) (A)
                 (A) (A) (A) (A) (A) (A) (A) (A) (A) (A) (A) (A)
                 (A) (A) (A) (A) (A) (A) (A) (A) (A) (A) (A) (A)
                 (A) (A) (A) (A) (A) (A) (A) (A) (A) (A) (A) (A)
                 (A) (A) (A) (A) (A) (A) (A) (A) (A) (A) (A) (A)
                 (A) (A) (A) (A) (A) (A) (A) (A) (A) (A) (A) (A)
                 (A) (A) (A) (A) (A) (A) (A) (A) (A) (A) (A) (A)
                 (A) (A) (A) (A) (A) (A) (A) (A) (A) (A) (A) (A)
                 (A) (A) (A) (A) (A) (A) (A) (A) (A) (A) (A) (A)
                 (A) (A) (A) (A) (A) (A) (A) (A) (A) (A) (A) (A)
                 (A) (A) (A) (A) (A) (A) (A) (A) (A) (A) (A) (A)
                 (A) (A) (A) (A) (A) (A) (A) (A) (A) (A) (A) (A)
                 (A) (A) (A) (A) (A) (A) (A) (A) (A) (A) (A) (A)
                 (A) (A) (A) (A) (A) (A) (A) (A) (A) (A) (A) (A)
                 (A) (A) (A) (A) (A) (A) (A) (A) (A) (A) (A) (A)
                 (A) (A) (A) (A) (A) (A) (A) (A) (A) (A) (A) (A)
                 (A) (A) (A) (A) (A) (A) (A) (A) (A) (A) (A) (A)
                 (A) (A) (A) (A) (A) (A) (A) (A) (A) (A) (A) (A)
                 (A) (A) (A) (A) (A) (A) (A) (A) (A) (A) (A) (A)
                 (A) (A) (A) (A) (A) (A) (A) (A) (A) (A) (A) (A)
                 (A) (A) (A) (A) (A) (A) (A) (A) (A) (A)
 The electronic state is 1-A.
 Alpha  occ. eigenvalues --  -66.29481 -19.35496 -19.26883 -19.25965 -19.25200
 Alpha  occ. eigenvalues --  -19.16198 -10.37783 -10.35034  -5.41440  -3.76196
 Alpha  occ. eigenvalues --   -3.75889  -3.75605  -1.22786  -1.13449  -1.13004
 Alpha  occ. eigenvalues --   -1.11151  -0.98189  -0.87772  -0.75611  -0.69961
 Alpha  occ. eigenvalues --   -0.65051  -0.63120  -0.61992  -0.60806  -0.58321
 Alpha  occ. eigenvalues --   -0.52901  -0.51642  -0.50678  -0.48094  -0.47145
 Alpha  occ. eigenvalues --   -0.44867  -0.43277  -0.43070  -0.40441  -0.38399
 Alpha  occ. eigenvalues --   -0.34772  -0.34555
 Alpha virt. eigenvalues --    0.06990   0.10011   0.11761   0.13145   0.15310
 Alpha virt. eigenvalues --    0.16186   0.16453   0.17079   0.19539   0.20923
 Alpha virt. eigenvalues --    0.21545   0.24069   0.24513   0.26229   0.27302
 Alpha virt. eigenvalues --    0.28422   0.29747   0.29965   0.32277   0.33585
 Alpha virt. eigenvalues --    0.34542   0.38645   0.39898   0.40258   0.41483
 Alpha virt. eigenvalues --    0.43117   0.43370   0.45114   0.45395   0.45437
 Alpha virt. eigenvalues --    0.47761   0.48599   0.50342   0.51333   0.51986
 Alpha virt. eigenvalues --    0.52755   0.53805   0.55448   0.56514   0.56841
 Alpha virt. eigenvalues --    0.58706   0.59864   0.61775   0.62481   0.63150
 Alpha virt. eigenvalues --    0.65172   0.67451   0.69182   0.71124   0.71460
 Alpha virt. eigenvalues --    0.74225   0.74341   0.75658   0.77110   0.80531
 Alpha virt. eigenvalues --    0.81237   0.83245   0.84193   0.85356   0.86702
 Alpha virt. eigenvalues --    0.90692   0.91188   0.92572   0.93426   0.95508
 Alpha virt. eigenvalues --    0.97460   0.99717   1.00196   1.01435   1.02317
 Alpha virt. eigenvalues --    1.04251   1.05650   1.06528   1.08502   1.10648
 Alpha virt. eigenvalues --    1.11618   1.13387   1.17025   1.18266   1.19013
 Alpha virt. eigenvalues --    1.20104   1.22581   1.24358   1.25978   1.26993
 Alpha virt. eigenvalues --    1.28052   1.30619   1.31725   1.33227   1.36425
 Alpha virt. eigenvalues --    1.37055   1.37491   1.38555   1.40674   1.42247
 Alpha virt. eigenvalues --    1.44741   1.46242   1.47487   1.50050   1.52503
 Alpha virt. eigenvalues --    1.54649   1.55251   1.56462   1.58489   1.59482
 Alpha virt. eigenvalues --    1.62481   1.63801   1.66675   1.75330   1.76853
 Alpha virt. eigenvalues --    1.78088   1.81868   1.83099   1.86912   1.91779
 Alpha virt. eigenvalues --    1.92459   1.93385   1.95990   1.97718   1.99202
 Alpha virt. eigenvalues --    2.01225   2.03244   2.05515   2.06242   2.10425
 Alpha virt. eigenvalues --    2.10911   2.13456   2.17277   2.17409   2.18706
 Alpha virt. eigenvalues --    2.22177   2.22499   2.25914   2.26372   2.29539
 Alpha virt. eigenvalues --    2.34121   2.37059   2.38775   2.41434   2.42350
 Alpha virt. eigenvalues --    2.48473   2.55365   2.55823   2.58552   2.62355
 Alpha virt. eigenvalues --    2.64648   2.68693   2.71105   2.72990   2.75224
 Alpha virt. eigenvalues --    2.78251   2.80513   2.82634   2.86102   2.86289
 Alpha virt. eigenvalues --    2.89883   2.94048   2.95204   2.97803   3.01312
 Alpha virt. eigenvalues --    3.03027   3.04818   3.04947   3.05526   3.09044
 Alpha virt. eigenvalues --    3.11479   3.14220   3.16203   3.17995   3.19206
 Alpha virt. eigenvalues --    3.22350   3.24167   3.26849   3.28109   3.31215
 Alpha virt. eigenvalues --    3.31881   3.33444   3.34026   3.36543   3.38282
 Alpha virt. eigenvalues --    3.39572   3.42213   3.42925   3.43196   3.45062
 Alpha virt. eigenvalues --    3.46492   3.52669   3.54054   3.55950   3.58614
 Alpha virt. eigenvalues --    3.59794   3.64489   3.67519   3.68371   3.71029
 Alpha virt. eigenvalues --    3.71930   3.73471   3.75360   3.76926   3.77907
 Alpha virt. eigenvalues --    3.82189   3.83992   3.85188   3.88544   3.89932
 Alpha virt. eigenvalues --    3.91986   3.95354   3.98080   3.98873   4.00944
 Alpha virt. eigenvalues --    4.03244   4.06588   4.07714   4.10128   4.11115
 Alpha virt. eigenvalues --    4.12996   4.15168   4.15454   4.18006   4.18809
 Alpha virt. eigenvalues --    4.20416   4.23937   4.25877   4.28495   4.29505
 Alpha virt. eigenvalues --    4.31262   4.33777   4.35713   4.37651   4.40412
 Alpha virt. eigenvalues --    4.42618   4.44514   4.47065   4.51104   4.55953
 Alpha virt. eigenvalues --    4.59876   4.63390   4.69824   4.70573   4.74501
 Alpha virt. eigenvalues --    4.77191   4.83152   4.87405   4.93404   4.96693
 Alpha virt. eigenvalues --    4.98138   4.98828   5.00699   5.01803   5.04217
 Alpha virt. eigenvalues --    5.04857   5.09831   5.10206   5.13927   5.18605
 Alpha virt. eigenvalues --    5.25292   5.26331   5.30725   5.32997   5.33835
 Alpha virt. eigenvalues --    5.36176   5.38340   5.38981   5.41949   5.43125
 Alpha virt. eigenvalues --    5.44641   5.46454   5.47671   5.49203   5.52146
 Alpha virt. eigenvalues --    5.54654   5.57950   5.61862   5.63539   5.66287
 Alpha virt. eigenvalues --    5.67896   5.69212   5.74231   5.79711   5.83898
 Alpha virt. eigenvalues --    5.85770   5.88629   5.91337   6.02333   6.13804
 Alpha virt. eigenvalues --    6.14005   6.45356   6.47971   6.50683   6.52443
 Alpha virt. eigenvalues --    6.56939   6.59675   6.62654   6.64792   6.66545
 Alpha virt. eigenvalues --    6.67525   6.68584   6.69532   6.70459   6.72637
 Alpha virt. eigenvalues --    6.76668   6.77039   6.80950   6.82023   6.84170
 Alpha virt. eigenvalues --    6.86210   6.87763   6.90113   6.95598   6.96179
 Alpha virt. eigenvalues --    6.98316   7.02281   7.07468   7.09879   7.18175
 Alpha virt. eigenvalues --    7.24414   7.29613   7.33302   7.35286   7.45447
 Alpha virt. eigenvalues --    7.52278   7.53340   7.58979   7.64819   7.66480
 Alpha virt. eigenvalues --    7.67221  12.44167  23.32067  23.44958  43.86715
 Alpha virt. eigenvalues --   43.87504  43.91062  44.09208  44.21077
          Condensed to atoms (all electrons):
               1          2          3          4          5          6
     1  Si  11.551634   0.467138  -0.015625   0.664773   0.422881  -0.022963
     2  O    0.467138   7.651164   0.321995  -0.018692  -0.022592   0.000641
     3  H   -0.015625   0.321995   0.518944   0.000971  -0.002266   0.000033
     4  O    0.664773  -0.018692   0.000971   8.033950  -0.023145  -0.001146
     5  O    0.422881  -0.022592  -0.002266  -0.023145   7.718026   0.332835
     6  H   -0.022963   0.000641   0.000033  -0.001146   0.332835   0.479525
     7  C   -0.026444   0.000276  -0.000056  -0.012578   0.007111   0.001804
     8  H   -0.006040   0.000187  -0.000003   0.000081   0.010759  -0.001122
     9  H    0.002458  -0.000162   0.000012  -0.000112   0.000744   0.000066
    10  C    0.014034  -0.000260  -0.000049   0.015798  -0.010158  -0.000506
    11  H   -0.001200  -0.000021  -0.000004   0.003552   0.002022   0.000897
    12  H    0.001582  -0.000000  -0.000001   0.000790   0.000019  -0.000039
    13  O    0.210107  -0.026818   0.000975  -0.026296  -0.022658   0.001021
    14  H   -0.010086   0.001462  -0.000047   0.000656   0.000561  -0.000133
    15  O   -0.004556  -0.000005   0.000014  -0.037602   0.000083  -0.000052
    16  H   -0.002134   0.000125  -0.000013   0.062595   0.000348  -0.000088
               7          8          9         10         11         12
     1  Si  -0.026444  -0.006040   0.002458   0.014034  -0.001200   0.001582
     2  O    0.000276   0.000187  -0.000162  -0.000260  -0.000021  -0.000000
     3  H   -0.000056  -0.000003   0.000012  -0.000049  -0.000004  -0.000001
     4  O   -0.012578   0.000081  -0.000112   0.015798   0.003552   0.000790
     5  O    0.007111   0.010759   0.000744  -0.010158   0.002022   0.000019
     6  H    0.001804  -0.001122   0.000066  -0.000506   0.000897  -0.000039
     7  C    4.975862   0.414359   0.411442   0.253246  -0.050266  -0.043861
     8  H    0.414359   0.537569  -0.018142  -0.029362  -0.003922   0.004975
     9  H    0.411442  -0.018142   0.549811  -0.030024   0.007313  -0.010704
    10  C    0.253246  -0.029362  -0.030024   4.700782   0.430357   0.427469
    11  H   -0.050266  -0.003922   0.007313   0.430357   0.602135  -0.028169
    12  H   -0.043861   0.004975  -0.010704   0.427469  -0.028169   0.583037
    13  O    0.194654  -0.024855  -0.029937  -0.029666   0.000118   0.002884
    14  H   -0.030931   0.007058  -0.002676  -0.013088   0.002922   0.000779
    15  O   -0.069135   0.004507   0.004136   0.256596  -0.037726  -0.026712
    16  H    0.004314  -0.000601  -0.000684  -0.032007  -0.012791   0.004063
              13         14         15         16
     1  Si   0.210107  -0.010086  -0.004556  -0.002134
     2  O   -0.026818   0.001462  -0.000005   0.000125
     3  H    0.000975  -0.000047   0.000014  -0.000013
     4  O   -0.026296   0.000656  -0.037602   0.062595
     5  O   -0.022658   0.000561   0.000083   0.000348
     6  H    0.001021  -0.000133  -0.000052  -0.000088
     7  C    0.194654  -0.030931  -0.069135   0.004314
     8  H   -0.024855   0.007058   0.004507  -0.000601
     9  H   -0.029937  -0.002676   0.004136  -0.000684
    10  C   -0.029666  -0.013088   0.256596  -0.032007
    11  H    0.000118   0.002922  -0.037726  -0.012791
    12  H    0.002884   0.000779  -0.026712   0.004063
    13  O    7.581062   0.314653  -0.016249   0.001079
    14  H    0.314653   0.472772   0.051420  -0.004210
    15  O   -0.016249   0.051420   7.963518   0.325244
    16  H    0.001079  -0.004210   0.325244   0.412992
 Mulliken charges:
               1
     1  Si   0.754441
     2  O   -0.374437
     3  H    0.175119
     4  O   -0.663596
     5  O   -0.414571
     6  H    0.209227
     7  C   -0.029798
     8  H    0.104551
     9  H    0.116459
    10  C    0.046837
    11  H    0.084782
    12  H    0.083888
    13  O   -0.130077
    14  H    0.208888
    15  O   -0.413481
    16  H    0.241767
 Sum of Mulliken charges =  -0.00000
 Mulliken charges with hydrogens summed into heavy atoms:
               1
     1  Si   0.754441
     2  O   -0.199318
     4  O   -0.663596
     5  O   -0.205343
     7  C    0.191212
    10  C    0.215507
    13  O    0.078811
    15  O   -0.171714
 APT charges:
               1
     1  Si   0.449207
     2  O   -0.680002
     3  H    0.657672
     4  O   -0.645687
     5  O   -0.606614
     6  H    0.487830
     7  C   -0.608206
     8  H    0.292128
     9  H    0.537455
    10  C   -0.692311
    11  H    0.211658
    12  H    0.627724
    13  O   -0.300078
    14  H    0.406867
    15  O   -0.324174
    16  H    0.186531
 Sum of APT charges =  -0.00000
 APT charges with hydrogens summed into heavy atoms:
               1
     1  Si   0.449207
     2  O   -0.022330
     4  O   -0.645687
     5  O   -0.118784
     7  C    0.221377
    10  C    0.147072
    13  O    0.106789
    15  O   -0.137643
 Electronic spatial extent (au):  <R**2>=           1124.3991
 Charge=             -0.0000 electrons
 Dipole moment (field-independent basis, Debye):
    X=             -1.1699    Y=             -5.3505    Z=             -0.5084  Tot=              5.5004
 Quadrupole moment (field-independent basis, Debye-Ang):
   XX=            -51.1906   YY=            -59.8461   ZZ=            -48.9268
   XY=              2.0012   XZ=             -1.1078   YZ=             -1.3112
 Traceless Quadrupole moment (field-independent basis, Debye-Ang):
   XX=              2.1306   YY=             -6.5249   ZZ=              4.3943
   XY=              2.0012   XZ=             -1.1078   YZ=             -1.3112
 Octapole moment (field-independent basis, Debye-Ang**2):
  XXX=             21.6540  YYY=            -10.0662  ZZZ=              6.0809  XYY=             -4.3627
  XXY=            -20.9097  XXZ=             -1.3580  XZZ=              1.7758  YZZ=             -6.4919
  YYZ=             -6.4933  XYZ=              2.1041
 Hexadecapole moment (field-independent basis, Debye-Ang**3):
 XXXX=           -781.2523 YYYY=           -318.8723 ZZZZ=           -187.1823 XXXY=              3.4206
 XXXZ=            -29.5092 YYYX=             -4.3817 YYYZ=             -6.7236 ZZZX=             15.7263
 ZZZY=            -14.6732 XXYY=           -200.5832 XXZZ=           -169.3770 YYZZ=            -90.7511
 XXYZ=             23.9192 YYXZ=             -5.5922 ZZXY=             -7.8010
 N-N= 5.357751266652D+02 E-N=-2.839464537587D+03  KE= 7.443220609490D+02
  Exact polarizability:       0.000       0.000       0.000       0.000       0.000       0.000
 Approx polarizability:      68.971      -1.078      68.329      -1.557      -1.119      65.529
   1 Symmetry operations used in ECPInt.
 ECPInt:  NShTT=    9730 NPrTT=   27009 LenC2=    9447 LenP2D=   20979.
 LDataN:  DoStor=T MaxTD1= 8 Len=  415
 Calling FoFJK, ICntrl=    100127 FMM=F ISym2X=0 I1Cent= 0 IOpClX= 0 NMat=1 NMatS=1 NMatT=0.
 ***** Axes restored to original set *****
 -------------------------------------------------------------------
 Center     Atomic                   Forces (Hartrees/Bohr)
 Number     Number              X              Y              Z
 -------------------------------------------------------------------
      1       14          -0.008670251    0.006590929   -0.023651910
      2        8           0.001748705   -0.000601618    0.003801953
      3        1           0.000565716   -0.000717841   -0.000310675
      4        8           0.001988658   -0.006710889    0.008490638
      5        8          -0.002492955    0.015149868    0.007573460
      6        1           0.005521282   -0.012931388    0.001855887
      7        6           0.001276432   -0.000772419   -0.001152165
      8        1          -0.000122222   -0.000420527    0.000425058
      9        1          -0.000227052    0.000329713    0.000187768
     10        6          -0.000505230   -0.001765193   -0.002291091
     11        1           0.000560443    0.000069216   -0.001017831
     12        1          -0.000162566    0.000107865    0.000126688
     13        8          -0.001781480   -0.001149693    0.003773315
     14        1           0.000729704    0.000816688   -0.000561945
     15        8          -0.002163047    0.000487687    0.003171245
     16        1           0.003733863    0.001517602   -0.000420395
 -------------------------------------------------------------------
 Cartesian Forces:  Max     0.023651910 RMS     0.005357917
 FormGI is forming the generalized inverse of G from B-inverse, IUseBI=4.

 GradGradGradGradGradGradGradGradGradGradGradGradGradGradGradGradGradGrad
 Berny optimization.
 Internal  Forces:  Max     0.014007057 RMS     0.002961507
 Search for a local minimum.
 Step number   1 out of a maximum of   79
 All quantities printed in internal units (Hartrees-Bohrs-Radians)
 Mixed Optimization -- RFO/linear search
 Second derivative matrix not updated -- analytic derivatives used.
 ITU=  0
     Eigenvalues ---    0.00167   0.00210   0.00321   0.00379   0.00934
     Eigenvalues ---    0.02387   0.03409   0.04320   0.04720   0.05356
     Eigenvalues ---    0.05944   0.06586   0.06932   0.07447   0.08125
     Eigenvalues ---    0.08541   0.09690   0.10309   0.11073   0.11769
     Eigenvalues ---    0.12454   0.13116   0.13788   0.17058   0.22118
     Eigenvalues ---    0.22831   0.25599   0.27670   0.33055   0.33661
     Eigenvalues ---    0.34591   0.34883   0.35472   0.36106   0.37384
     Eigenvalues ---    0.41558   0.48062   0.48966   0.50959   0.51938
     Eigenvalues ---    0.56851   0.70680
 RFO step:  Lambda=-2.49425471D-03 EMin= 1.66605492D-03
 Linear search not attempted -- first point.
 Iteration  1 RMS(Cart)=  0.03072788 RMS(Int)=  0.00105936
 Iteration  2 RMS(Cart)=  0.00117100 RMS(Int)=  0.00013915
 Iteration  3 RMS(Cart)=  0.00000137 RMS(Int)=  0.00013915
 Iteration  4 RMS(Cart)=  0.00000000 RMS(Int)=  0.00013915
 Variable       Old X    -DE/DX   Delta X   Delta X   Delta X     New X
                                 (Linear)    (Quad)   (Total)
    R1        3.06307   0.00181   0.00000   0.00322   0.00322   3.06628
    R2        2.91936  -0.01061   0.00000  -0.02546  -0.02546   2.89390
    R3        3.06927   0.00980   0.00000   0.02551   0.02551   3.09477
    R4        3.55582   0.00016   0.00000   0.02808   0.02808   3.58390
    R5        1.80397   0.00031   0.00000  -0.00029  -0.00029   1.80368
    R6        1.83412  -0.01401   0.00000  -0.03087  -0.03087   1.80325
    R7        2.05135   0.00012   0.00000   0.00054   0.00054   2.05189
    R8        2.05637  -0.00009   0.00000   0.00028   0.00028   2.05665
    R9        2.89796  -0.00021   0.00000   0.00182   0.00182   2.89978
   R10        2.75925  -0.00251   0.00000  -0.00536  -0.00536   2.75389
   R11        2.06218   0.00021   0.00000   0.00204   0.00204   2.06422
   R12        2.06100   0.00020   0.00000   0.00091   0.00091   2.06191
   R13        2.65731  -0.00321   0.00000  -0.00997  -0.00997   2.64734
   R14        1.84086  -0.00008   0.00000  -0.00013  -0.00013   1.84073
   R15        1.85185   0.00386   0.00000   0.01207   0.01207   1.86393
    A1        2.09481   0.00272   0.00000   0.02284   0.02290   2.11772
    A2        1.93136  -0.00421   0.00000  -0.04720  -0.04745   1.88390
    A3        1.71488   0.00059   0.00000  -0.00505  -0.00564   1.70924
    A4        2.09499   0.00280   0.00000   0.03856   0.03864   2.13364
    A5        1.79412  -0.00258   0.00000  -0.00150  -0.00136   1.79277
    A6        1.73375  -0.00035   0.00000  -0.02178  -0.02215   1.71160
    A7        2.05242   0.00164   0.00000   0.00216   0.00216   2.05458
    A8        1.93733   0.00369   0.00000   0.06652   0.06652   2.00385
    A9        1.92293  -0.00086   0.00000  -0.00484  -0.00484   1.91810
   A10        1.97878   0.00032   0.00000   0.00213   0.00212   1.98090
   A11        1.85694   0.00219   0.00000   0.00053   0.00053   1.85747
   A12        1.95840   0.00190   0.00000  -0.00290  -0.00291   1.95549
   A13        1.83899   0.00120   0.00000   0.00403   0.00404   1.84303
   A14        1.89940  -0.00477   0.00000   0.00154   0.00154   1.90094
   A15        1.92303   0.00006   0.00000  -0.00283  -0.00283   1.92021
   A16        1.89691   0.00063   0.00000   0.00033   0.00031   1.89722
   A17        1.91126  -0.00058   0.00000   0.00375   0.00374   1.91500
   A18        1.88992   0.00010   0.00000   0.00026   0.00027   1.89018
   A19        1.93844  -0.00121   0.00000  -0.00736  -0.00735   1.93109
   A20        1.90360   0.00105   0.00000   0.00605   0.00603   1.90963
   A21        2.07358  -0.00262   0.00000  -0.00154  -0.00159   2.07199
   A22        1.81667  -0.00150   0.00000  -0.02599  -0.02605   1.79063
   A23        1.80450   0.00105   0.00000   0.00003  -0.00013   1.80437
   A24        1.83899  -0.00197   0.00000  -0.00679  -0.00679   1.83220
    D1        2.80177   0.00158   0.00000   0.00944   0.00941   2.81118
    D2        0.24155  -0.00130   0.00000  -0.02462  -0.02435   0.21720
    D3       -1.56123  -0.00016   0.00000   0.01259   0.01235  -1.54888
    D4        2.56009   0.00060   0.00000  -0.02870  -0.02914   2.53095
    D5       -0.00006  -0.00224   0.00000  -0.05679  -0.05691  -0.05698
    D6       -1.93304   0.00004   0.00000  -0.05536  -0.05479  -1.98783
    D7        2.84885  -0.00141   0.00000  -0.00790  -0.00786   2.84099
    D8       -1.44054  -0.00254   0.00000  -0.02728  -0.02714  -1.46768
    D9       -1.27946   0.00090   0.00000   0.01432   0.01425  -1.26521
   D10        0.71433  -0.00023   0.00000  -0.00506  -0.00503   0.70930
   D11        0.88270   0.00289   0.00000   0.04723   0.04711   0.92981
   D12        2.87649   0.00177   0.00000   0.02785   0.02783   2.90432
   D13        0.52328   0.00005   0.00000   0.01858   0.01858   0.54186
   D14       -1.54493  -0.00049   0.00000   0.01972   0.01972  -1.52521
   D15        2.66032  -0.00180   0.00000   0.01001   0.01001   2.67033
   D16        2.71565   0.00071   0.00000   0.01134   0.01134   2.72699
   D17        0.64744   0.00017   0.00000   0.01248   0.01248   0.65992
   D18       -1.43050  -0.00114   0.00000   0.00278   0.00278  -1.42772
   D19       -1.53935   0.00032   0.00000   0.01556   0.01556  -1.52379
   D20        2.67562  -0.00022   0.00000   0.01670   0.01670   2.69232
   D21        0.59768  -0.00154   0.00000   0.00700   0.00699   0.60467
   D22       -1.01176  -0.00188   0.00000  -0.04786  -0.04788  -1.05963
   D23       -3.01210   0.00059   0.00000  -0.01456  -0.01455  -3.02665
   D24       -3.05348  -0.00248   0.00000  -0.04449  -0.04450  -3.09798
   D25        1.22937   0.00000   0.00000  -0.01119  -0.01117   1.21819
   D26        1.12624  -0.00291   0.00000  -0.04413  -0.04414   1.08210
   D27       -0.87411  -0.00043   0.00000  -0.01082  -0.01081  -0.88492
   D28       -1.55592   0.00110   0.00000   0.01556   0.01557  -1.54035
   D29        0.57190  -0.00001   0.00000   0.00970   0.00971   0.58161
   D30        2.65346   0.00004   0.00000   0.00936   0.00934   2.66280
         Item               Value     Threshold  Converged?
 Maximum Force            0.014007     0.000450     NO 
 RMS     Force            0.002962     0.000300     NO 
 Maximum Displacement     0.118152     0.001800     NO 
 RMS     Displacement     0.030679     0.001200     NO 
 Predicted change in Energy=-1.289769D-03
 GradGradGradGradGradGradGradGradGradGradGradGradGradGradGradGradGradGrad

                          Input orientation:                          
 ---------------------------------------------------------------------
 Center     Atomic      Atomic             Coordinates (Angstroms)
 Number     Number       Type             X           Y           Z
 ---------------------------------------------------------------------
      1         14           0        1.032467   -0.247496   -0.212241
      2          8           0        2.179373   -1.358579   -0.500255
      3          1           0        2.761570   -1.592408    0.219033
      4          8           0        0.344731    0.502344   -1.356751
      5          8           0        1.371429    0.467367    1.221665
      6          1           0        1.152078    1.394871    1.268466
      7          6           0       -1.451983   -0.872107    1.134500
      8          1           0       -1.035809   -0.412771    2.026012
      9          1           0       -2.067674   -1.725981    1.410703
     10          6           0       -2.206504    0.114402    0.233290
     11          1           0       -1.762794    1.109285    0.314115
     12          1           0       -3.242861    0.173139    0.569520
     13          8           0       -0.326393   -1.424527    0.391810
     14          1           0       -0.731918   -1.725982   -0.440953
     15          8           0       -2.172037   -0.335488   -1.092973
     16          1           0       -1.343761    0.045093   -1.469800
 ---------------------------------------------------------------------
                    Distance matrix (angstroms):
                    1          2          3          4          5
     1  Si   0.000000
     2  O    1.622607   0.000000
     3  H    2.232618   0.954466   0.000000
     4  O    1.531386   2.750005   3.565416   0.000000
     5  O    1.637684   2.636638   2.679633   2.775528   0.000000
     6  H    2.214536   3.430044   3.551846   2.887937   0.954238
     7  C    2.894191   4.011960   4.371606   3.365059   3.126251
     8  H    3.052025   4.196901   4.367700   3.766485   2.686339
     9  H    3.798781   4.671633   4.975893   4.294639   4.083374
    10  C    3.289437   4.684408   5.253109   3.031093   3.728683
    11  H    3.151411   4.721677   5.270489   2.757142   3.325517
    12  H    4.366522   5.735085   6.268428   4.085304   4.669426
    13  O    1.896518   2.660638   3.097346   2.687137   2.674046
    14  H    2.313284   2.934982   3.557792   2.638805   3.463978
    15  O    3.324496   4.509190   5.257536   2.665644   4.307932
    16  H    2.704353   3.914433   4.731523   1.752959   3.846370
                    6          7          8          9         10
     6  H    0.000000
     7  C    3.455180   0.000000
     8  H    2.937395   1.085811   0.000000
     9  H    4.486284   1.088331   1.779852   0.000000
    10  C    3.740489   1.534496   2.205060   2.189197   0.000000
    11  H    3.080394   2.166921   2.403280   3.055190   1.092338
    12  H    4.614828   2.149182   2.708457   2.386485   1.091117
    13  O    3.302031   1.457295   2.048790   2.039871   2.434799
    14  H    4.026323   1.931229   2.811190   2.283171   2.452757
    15  O    4.429478   2.401681   3.320400   2.865790   1.400915
    16  H    3.943249   2.763213   3.539093   3.458042   1.910405
                   11         12         13         14         15
    11  H    0.000000
    12  H    1.769802   0.000000
    13  O    2.913673   3.330151   0.000000
    14  H    3.109914   3.306440   0.974073   0.000000
    15  O    2.057849   2.041874   2.607103   2.105361   0.000000
    16  H    2.119067   2.789588   2.580778   2.137659   0.986348
                   16
    16  H    0.000000
 Stoichiometry    C2H8O5Si
 Framework group  C1[X(C2H8O5Si)]
 Deg. of freedom    42
 Full point group                 C1      NOp   1
 Largest Abelian subgroup         C1      NOp   1
 Largest concise Abelian subgroup C1      NOp   1
                         Standard orientation:                         
 ---------------------------------------------------------------------
 Center     Atomic      Atomic             Coordinates (Angstroms)
 Number     Number       Type             X           Y           Z
 ---------------------------------------------------------------------
      1         14           0        1.060661    0.220933    0.138364
      2          8           0        2.256740    0.300402   -0.955223
      3          1           0        2.848371   -0.445682   -1.021076
      4          8           0        0.340627    1.482155    0.624174
      5          8           0        1.365982   -1.047224    1.128599
      6          1           0        1.104971   -0.917668    2.037256
      7          6           0       -1.394056   -1.239967   -0.326905
      8          1           0       -0.999679   -2.023959    0.312477
      9          1           0       -1.970794   -1.679106   -1.138690
     10          6           0       -2.191662   -0.172860    0.434531
     11          1           0       -1.793352   -0.058576    1.445219
     12          1           0       -3.229859   -0.499863    0.510386
     13          8           0       -0.244147   -0.607634   -0.960605
     14          1           0       -0.635052    0.148945   -1.433469
     15          8           0       -2.135967    1.043230   -0.258713
     16          1           0       -1.325433    1.492381    0.079191
 ---------------------------------------------------------------------
 Rotational constants (GHZ):           2.8048895           1.2579358           1.1548796
 Standard basis: def2TZVPP (5D, 7F)
 There are   420 symmetry adapted cartesian basis functions of A   symmetry.
 There are   371 symmetry adapted basis functions of A   symmetry.
   371 basis functions,   562 primitive gaussians,   420 cartesian basis functions
    37 alpha electrons       37 beta electrons
       nuclear repulsion energy       536.2647141960 Hartrees.
 NAtoms=   16 NActive=   16 NUniq=   16 SFac= 1.00D+00 NAtFMM=   60 NAOKFM=F Big=F
 Integral buffers will be    131072 words long.
 Raffenetti 2 integral format.
 Two-electron integral symmetry is turned on.
 Nuclear repulsion after empirical dispersion term =      536.2563255003 Hartrees.
 One-electron integrals computed using PRISM.
   1 Symmetry operations used in ECPInt.
 ECPInt:  NShTT=    9730 NPrTT=   27009 LenC2=    9455 LenP2D=   20999.
 LDataN:  DoStor=T MaxTD1= 6 Len=  172
 NBasis=   371 RedAO= T EigKep=  2.25D-04  NBF=   371
 NBsUse=   371 1.00D-06 EigRej= -1.00D+00 NBFU=   371
 Initial guess from the checkpoint file:  "QL_zwitterion_opt.chk"
 B after Tr=    -0.000000    0.000000   -0.000000
         Rot=    0.999958    0.009022   -0.000326   -0.001583 Ang=   1.05 deg.
 ExpMin= 7.01D-02 ExpMax= 4.48D+04 ExpMxC= 1.53D+03 IAcc=3 IRadAn=         5 AccDes= 0.00D+00
 Harris functional with IExCor= 4639 and IRadAn=       5 diagonalized for initial guess.
 HarFok:  IExCor= 4639 AccDes= 0.00D+00 IRadAn=         5 IDoV= 1 UseB2=F ITyADJ=14
 ICtDFT=  3500011 ScaDFX=  1.000000  1.000000  1.000000  1.000000
 FoFCou: FMM=F IPFlag=           0 FMFlag=      100000 FMFlg1=           0
         NFxFlg=           0 DoJE=T BraDBF=F KetDBF=T FulRan=T
         wScrn=  0.000000 ICntrl=       500 IOpCl=  0 I1Cent=   200000004 NGrid=           0
         NMat0=    1 NMatS0=      1 NMatT0=    0 NMatD0=    1 NMtDS0=    0 NMtDT0=    0
 Petite list used in FoFCou.
 Requested convergence on RMS density matrix=1.00D-08 within 128 cycles.
 Requested convergence on MAX density matrix=1.00D-06.
 Requested convergence on             energy=1.00D-06.
 No special actions if energy rises.
 Integral accuracy reduced to 1.0D-05 until final iterations.
 Initial convergence to 1.0D-05 achieved.  Increase integral accuracy.
 SCF Done:  E(RwB97XD) =  -746.854818946     A.U. after   11 cycles
            NFock= 11  Conv=0.70D-08     -V/T= 2.0034
   1 Symmetry operations used in ECPInt.
 ECPInt:  NShTT=    9730 NPrTT=   27009 LenC2=    9455 LenP2D=   20999.
 LDataN:  DoStor=T MaxTD1= 7 Len=  274
 Calling FoFJK, ICntrl=      2127 FMM=F ISym2X=0 I1Cent= 0 IOpClX= 0 NMat=1 NMatS=1 NMatT=0.
 ***** Axes restored to original set *****
 -------------------------------------------------------------------
 Center     Atomic                   Forces (Hartrees/Bohr)
 Number     Number              X              Y              Z
 -------------------------------------------------------------------
      1       14           0.000576495   -0.000463854   -0.000039351
      2        8           0.000050551   -0.000033569   -0.000120185
      3        1          -0.000017982    0.000024570    0.000007435
      4        8          -0.000226071    0.000299848   -0.000407362
      5        8          -0.000164272   -0.000775700    0.000345390
      6        1           0.000089648    0.001023678    0.000077736
      7        6          -0.000066320   -0.000057123   -0.000127393
      8        1          -0.000041621   -0.000068002    0.000076249
      9        1          -0.000033125   -0.000006539   -0.000082999
     10        6          -0.000079678   -0.000049960    0.000010337
     11        1           0.000037160    0.000026524   -0.000028391
     12        1           0.000016134    0.000046315    0.000065900
     13        8           0.000071608    0.000159386    0.000216921
     14        1           0.000024983   -0.000078837    0.000026861
     15        8          -0.000452914   -0.000121428    0.000157373
     16        1           0.000215405    0.000074693   -0.000178521
 -------------------------------------------------------------------
 Cartesian Forces:  Max     0.001023678 RMS     0.000256638

 GradGradGradGradGradGradGradGradGradGradGradGradGradGradGradGradGradGrad
 Berny optimization.
 Using GEDIIS/GDIIS optimizer.
 FormGI is forming the generalized inverse of G from B-inverse, IUseBI=4.
 Internal  Forces:  Max     0.000977241 RMS     0.000218997
 Search for a local minimum.
 Step number   2 out of a maximum of   79
 All quantities printed in internal units (Hartrees-Bohrs-Radians)
 Mixed Optimization -- En-DIIS/RFO-DIIS
 Update second derivatives using D2CorX and points    1    2
 DE= -1.26D-03 DEPred=-1.29D-03 R= 9.75D-01
 TightC=F SS=  1.41D+00  RLast= 1.85D-01 DXNew= 5.0454D-01 5.5473D-01
 Trust test= 9.75D-01 RLast= 1.85D-01 DXMaxT set to 5.05D-01
 ITU=  1  0
 Use linear search instead of GDIIS.
     Eigenvalues ---    0.00166   0.00210   0.00321   0.00377   0.00934
     Eigenvalues ---    0.02396   0.03418   0.04319   0.04721   0.05352
     Eigenvalues ---    0.05951   0.06589   0.06940   0.07478   0.08125
     Eigenvalues ---    0.08545   0.09695   0.10310   0.11110   0.11764
     Eigenvalues ---    0.12449   0.13099   0.13773   0.17053   0.22145
     Eigenvalues ---    0.22855   0.25598   0.27718   0.33078   0.33662
     Eigenvalues ---    0.34595   0.34674   0.35477   0.36107   0.37185
     Eigenvalues ---    0.41496   0.48063   0.48965   0.51789   0.52404
     Eigenvalues ---    0.56853   0.71339
 RFO step:  Lambda=-5.12620180D-05 EMin= 1.66315031D-03
 Quartic linear search produced a step of  0.00041.
 Iteration  1 RMS(Cart)=  0.01611953 RMS(Int)=  0.00018731
 Iteration  2 RMS(Cart)=  0.00025693 RMS(Int)=  0.00000887
 Iteration  3 RMS(Cart)=  0.00000006 RMS(Int)=  0.00000887
 Variable       Old X    -DE/DX   Delta X   Delta X   Delta X     New X
                                 (Linear)    (Quad)   (Total)
    R1        3.06628   0.00005   0.00000   0.00078   0.00078   3.06707
    R2        2.89390   0.00055  -0.00001   0.00027   0.00026   2.89416
    R3        3.09477   0.00046   0.00001   0.00154   0.00155   3.09633
    R4        3.58390   0.00031   0.00001   0.00071   0.00072   3.58462
    R5        1.80368  -0.00001  -0.00000   0.00007   0.00007   1.80374
    R6        1.80325   0.00098  -0.00001   0.00167   0.00166   1.80491
    R7        2.05189   0.00002   0.00000   0.00010   0.00010   2.05199
    R8        2.05665   0.00000   0.00000   0.00013   0.00013   2.05678
    R9        2.89978   0.00010   0.00000  -0.00351  -0.00351   2.89627
   R10        2.75389   0.00020  -0.00000   0.00128   0.00127   2.75516
   R11        2.06422   0.00004   0.00000   0.00027   0.00028   2.06450
   R12        2.06191   0.00001   0.00000   0.00042   0.00042   2.06233
   R13        2.64734   0.00003  -0.00000  -0.00068  -0.00069   2.64666
   R14        1.84073  -0.00001  -0.00000  -0.00228  -0.00228   1.83845
   R15        1.86393   0.00028   0.00000  -0.00082  -0.00081   1.86312
    A1        2.11772  -0.00006   0.00001  -0.00136  -0.00135   2.11637
    A2        1.88390   0.00009  -0.00002   0.00252   0.00249   1.88640
    A3        1.70924  -0.00004  -0.00000  -0.00169  -0.00168   1.70756
    A4        2.13364  -0.00002   0.00002   0.00098   0.00100   2.13464
    A5        1.79277   0.00015  -0.00000   0.00329   0.00329   1.79605
    A6        1.71160  -0.00013  -0.00001  -0.00590  -0.00590   1.70569
    A7        2.05458  -0.00005   0.00000  -0.00122  -0.00121   2.05337
    A8        2.00385   0.00024   0.00003   0.00118   0.00121   2.00506
    A9        1.91810   0.00008  -0.00000   0.00045   0.00045   1.91855
   A10        1.98090  -0.00001   0.00000   0.00033   0.00033   1.98124
   A11        1.85747  -0.00032   0.00000  -0.00119  -0.00119   1.85627
   A12        1.95549  -0.00028  -0.00000  -0.00197  -0.00197   1.95351
   A13        1.84303  -0.00009   0.00000  -0.00123  -0.00123   1.84180
   A14        1.90094   0.00063   0.00000   0.00359   0.00359   1.90453
   A15        1.92021  -0.00002  -0.00000  -0.00006  -0.00007   1.92014
   A16        1.89722  -0.00009   0.00000  -0.00172  -0.00172   1.89550
   A17        1.91500   0.00019   0.00000   0.00084   0.00084   1.91585
   A18        1.89018   0.00001   0.00000  -0.00062  -0.00062   1.88956
   A19        1.93109   0.00002  -0.00000   0.00018   0.00017   1.93126
   A20        1.90963  -0.00012   0.00000   0.00134   0.00134   1.91097
   A21        2.07199   0.00065  -0.00000   0.00535   0.00533   2.07732
   A22        1.79063  -0.00004  -0.00001   0.00377   0.00372   1.79434
   A23        1.80437  -0.00013  -0.00000   0.00610   0.00606   1.81043
   A24        1.83220   0.00015  -0.00000  -0.00011  -0.00012   1.83208
    D1        2.81118  -0.00005   0.00000   0.00233   0.00234   2.81352
    D2        0.21720  -0.00004  -0.00001  -0.00171  -0.00173   0.21547
    D3       -1.54888   0.00009   0.00001   0.00468   0.00469  -1.54419
    D4        2.53095  -0.00014  -0.00001  -0.03985  -0.03986   2.49109
    D5       -0.05698  -0.00012  -0.00002  -0.04306  -0.04309  -0.10006
    D6       -1.98783  -0.00021  -0.00002  -0.04324  -0.04327  -2.03110
    D7        2.84099  -0.00001  -0.00000   0.00562   0.00562   2.84661
    D8       -1.46768   0.00010  -0.00001   0.01832   0.01832  -1.44936
    D9       -1.26521  -0.00005   0.00001   0.00460   0.00460  -1.26061
   D10        0.70930   0.00007  -0.00000   0.01730   0.01731   0.72661
   D11        0.92981  -0.00007   0.00002   0.00453   0.00454   0.93435
   D12        2.90432   0.00004   0.00001   0.01723   0.01724   2.92157
   D13        0.54186   0.00009   0.00001   0.02755   0.02756   0.56942
   D14       -1.52521   0.00014   0.00001   0.02937   0.02938  -1.49584
   D15        2.67033   0.00023   0.00000   0.02828   0.02828   2.69861
   D16        2.72699  -0.00005   0.00000   0.02682   0.02682   2.75382
   D17        0.65992   0.00001   0.00001   0.02864   0.02864   0.68856
   D18       -1.42772   0.00010   0.00000   0.02755   0.02755  -1.40017
   D19       -1.52379   0.00007   0.00001   0.02640   0.02640  -1.49739
   D20        2.69232   0.00012   0.00001   0.02821   0.02822   2.72053
   D21        0.60467   0.00021   0.00000   0.02712   0.02713   0.63180
   D22       -1.05963   0.00007  -0.00002  -0.02524  -0.02525  -1.08488
   D23       -3.02665  -0.00010  -0.00001  -0.03675  -0.03677  -3.06341
   D24       -3.09798   0.00017  -0.00002  -0.02463  -0.02464  -3.12262
   D25        1.21819  -0.00000  -0.00000  -0.03614  -0.03616   1.18203
   D26        1.08210   0.00022  -0.00002  -0.02350  -0.02350   1.05859
   D27       -0.88492   0.00005  -0.00000  -0.03501  -0.03503  -0.91994
   D28       -1.54035  -0.00006   0.00001  -0.00515  -0.00514  -1.54549
   D29        0.58161   0.00005   0.00000  -0.00455  -0.00455   0.57706
   D30        2.66280   0.00000   0.00000  -0.00437  -0.00437   2.65844
         Item               Value     Threshold  Converged?
 Maximum Force            0.000977     0.000450     NO 
 RMS     Force            0.000219     0.000300     YES
 Maximum Displacement     0.044832     0.001800     NO 
 RMS     Displacement     0.016111     0.001200     NO 
 Predicted change in Energy=-2.613326D-05
 GradGradGradGradGradGradGradGradGradGradGradGradGradGradGradGradGradGrad

                          Input orientation:                          
 ---------------------------------------------------------------------
 Center     Atomic      Atomic             Coordinates (Angstroms)
 Number     Number       Type             X           Y           Z
 ---------------------------------------------------------------------
      1         14           0        1.031320   -0.244557   -0.213890
      2          8           0        2.181457   -1.354448   -0.495892
      3          1           0        2.761091   -1.585079    0.226537
      4          8           0        0.345091    0.498637   -1.363810
      5          8           0        1.359533    0.474600    1.221307
      6          1           0        1.169464    1.410012    1.254831
      7          6           0       -1.457887   -0.879358    1.130808
      8          1           0       -1.051773   -0.433359    2.033724
      9          1           0       -2.077997   -1.736364    1.386979
     10          6           0       -2.202037    0.118815    0.237008
     11          1           0       -1.742209    1.106649    0.316151
     12          1           0       -3.234435    0.193426    0.582850
     13          8           0       -0.322889   -1.424620    0.395865
     14          1           0       -0.717643   -1.746572   -0.432980
     15          8           0       -2.184921   -0.329164   -1.089855
     16          1           0       -1.356253    0.042545   -1.473491
 ---------------------------------------------------------------------
                    Distance matrix (angstroms):
                    1          2          3          4          5
     1  Si   0.000000
     2  O    1.623021   0.000000
     3  H    2.232282   0.954500   0.000000
     4  O    1.531524   2.749444   3.564847   0.000000
     5  O    1.638505   2.640028   2.682575   2.777139   0.000000
     6  H    2.216715   3.425113   3.544184   2.892660   0.955115
     7  C    2.899541   4.014560   4.372130   3.372346   3.127179
     8  H    3.070291   4.207272   4.373821   3.789866   2.701631
     9  H    3.802121   4.672688   4.978583   4.293416   4.090529
    10  C    3.284805   4.682164   5.247475   3.032283   3.712170
    11  H    3.130362   4.702294   5.247204   2.747503   3.292355
    12  H    4.361569   5.735109   6.263894   4.086030   4.646636
    13  O    1.896900   2.659305   3.092790   2.691016   2.668134
    14  H    2.315798   2.926175   3.544380   2.652699   3.461926
    15  O    3.334469   4.524296   5.270033   2.676054   4.307048
    16  H    2.714688   3.927172   4.742550   1.764829   3.850208
                    6          7          8          9         10
     6  H    0.000000
     7  C    3.487058   0.000000
     8  H    2.989746   1.085865   0.000000
     9  H    4.523621   1.088402   1.780236   0.000000
    10  C    3.751023   1.532641   2.203677   2.186208   0.000000
    11  H    3.074246   2.165348   2.407984   3.056493   1.092484
    12  H    4.618004   2.146449   2.694793   2.389154   1.091338
    13  O    3.316637   1.457969   2.048525   2.039583   2.436929
    14  H    4.046468   1.935317   2.814392   2.272206   2.476283
    15  O    4.446818   2.400549   3.324399   2.850675   1.400551
    16  H    3.961434   2.764527   3.552429   3.444956   1.909705
                   11         12         13         14         15
    11  H    0.000000
    12  H    1.769701   0.000000
    13  O    2.903127   3.336185   0.000000
    14  H    3.122788   3.336127   0.972865   0.000000
    15  O    2.057767   2.042675   2.621936   2.143230   0.000000
    16  H    2.117569   2.789062   2.591314   2.165970   0.985919
                   16
    16  H    0.000000
 Stoichiometry    C2H8O5Si
 Framework group  C1[X(C2H8O5Si)]
 Deg. of freedom    42
 Full point group                 C1      NOp   1
 Largest Abelian subgroup         C1      NOp   1
 Largest concise Abelian subgroup C1      NOp   1
                         Standard orientation:                         
 ---------------------------------------------------------------------
 Center     Atomic      Atomic             Coordinates (Angstroms)
 Number     Number       Type             X           Y           Z
 ---------------------------------------------------------------------
      1         14           0        1.061783    0.223251    0.136897
      2          8           0        2.260628    0.286269   -0.955347
      3          1           0        2.848895   -0.463333   -1.011107
      4          8           0        0.344825    1.493372    0.604155
      5          8           0        1.355525   -1.036718    1.142329
      6          1           0        1.123931   -0.883989    2.056267
      7          6           0       -1.398656   -1.239760   -0.324816
      8          1           0       -1.014139   -2.032233    0.310193
      9          1           0       -1.980355   -1.666706   -1.139654
     10          6           0       -2.185210   -0.170043    0.440706
     11          1           0       -1.769956   -0.046676    1.443635
     12          1           0       -3.220415   -0.501691    0.537560
     13          8           0       -0.239417   -0.620196   -0.955672
     14          1           0       -0.618218    0.124585   -1.453946
     15          8           0       -2.146205    1.040573   -0.262452
     16          1           0       -1.334352    1.496951    0.061042
 ---------------------------------------------------------------------
 Rotational constants (GHZ):           2.7995548           1.2561875           1.1533932
 Standard basis: def2TZVPP (5D, 7F)
 There are   420 symmetry adapted cartesian basis functions of A   symmetry.
 There are   371 symmetry adapted basis functions of A   symmetry.
   371 basis functions,   562 primitive gaussians,   420 cartesian basis functions
    37 alpha electrons       37 beta electrons
       nuclear repulsion energy       535.9236630503 Hartrees.
 NAtoms=   16 NActive=   16 NUniq=   16 SFac= 1.00D+00 NAtFMM=   60 NAOKFM=F Big=F
 Integral buffers will be    131072 words long.
 Raffenetti 2 integral format.
 Two-electron integral symmetry is turned on.
 Nuclear repulsion after empirical dispersion term =      535.9152562828 Hartrees.
 One-electron integrals computed using PRISM.
   1 Symmetry operations used in ECPInt.
 ECPInt:  NShTT=    9730 NPrTT=   27009 LenC2=    9455 LenP2D=   20990.
 LDataN:  DoStor=T MaxTD1= 6 Len=  172
 NBasis=   371 RedAO= T EigKep=  2.23D-04  NBF=   371
 NBsUse=   371 1.00D-06 EigRej= -1.00D+00 NBFU=   371
 Initial guess from the checkpoint file:  "QL_zwitterion_opt.chk"
 B after Tr=     0.000000   -0.000000   -0.000000
         Rot=    0.999988    0.004891    0.000146    0.000333 Ang=   0.56 deg.
 ExpMin= 7.01D-02 ExpMax= 4.48D+04 ExpMxC= 1.53D+03 IAcc=3 IRadAn=         5 AccDes= 0.00D+00
 Harris functional with IExCor= 4639 and IRadAn=       5 diagonalized for initial guess.
 HarFok:  IExCor= 4639 AccDes= 0.00D+00 IRadAn=         5 IDoV= 1 UseB2=F ITyADJ=14
 ICtDFT=  3500011 ScaDFX=  1.000000  1.000000  1.000000  1.000000
 FoFCou: FMM=F IPFlag=           0 FMFlag=      100000 FMFlg1=           0
         NFxFlg=           0 DoJE=T BraDBF=F KetDBF=T FulRan=T
         wScrn=  0.000000 ICntrl=       500 IOpCl=  0 I1Cent=   200000004 NGrid=           0
         NMat0=    1 NMatS0=      1 NMatT0=    0 NMatD0=    1 NMtDS0=    0 NMtDT0=    0
 Petite list used in FoFCou.
 Requested convergence on RMS density matrix=1.00D-08 within 128 cycles.
 Requested convergence on MAX density matrix=1.00D-06.
 Requested convergence on             energy=1.00D-06.
 No special actions if energy rises.
 Integral accuracy reduced to 1.0D-05 until final iterations.
 Initial convergence to 1.0D-05 achieved.  Increase integral accuracy.
 SCF Done:  E(RwB97XD) =  -746.854852731     A.U. after   10 cycles
            NFock= 10  Conv=0.72D-08     -V/T= 2.0034
   1 Symmetry operations used in ECPInt.
 ECPInt:  NShTT=    9730 NPrTT=   27009 LenC2=    9455 LenP2D=   20990.
 LDataN:  DoStor=T MaxTD1= 7 Len=  274
 Calling FoFJK, ICntrl=      2127 FMM=F ISym2X=0 I1Cent= 0 IOpClX= 0 NMat=1 NMatS=1 NMatT=0.
 ***** Axes restored to original set *****
 -------------------------------------------------------------------
 Center     Atomic                   Forces (Hartrees/Bohr)
 Number     Number              X              Y              Z
 -------------------------------------------------------------------
      1       14           0.000081851   -0.000058212    0.000060606
      2        8           0.000009874    0.000001952   -0.000040948
      3        1          -0.000009970    0.000008098    0.000005209
      4        8          -0.000118144   -0.000006961   -0.000054589
      5        8          -0.000113678    0.000016906    0.000015004
      6        1           0.000068403    0.000001105    0.000000942
      7        6          -0.000042258   -0.000096614   -0.000094003
      8        1           0.000020219    0.000015793   -0.000004241
      9        1          -0.000007448    0.000008920    0.000003430
     10        6           0.000032414    0.000047760    0.000103316
     11        1          -0.000013794   -0.000004275    0.000018424
     12        1          -0.000000205    0.000000810   -0.000012731
     13        8           0.000103462    0.000047165    0.000117975
     14        1          -0.000042489    0.000040705   -0.000026241
     15        8           0.000161430    0.000070564   -0.000135135
     16        1          -0.000129667   -0.000093716    0.000042982
 -------------------------------------------------------------------
 Cartesian Forces:  Max     0.000161430 RMS     0.000063586

 GradGradGradGradGradGradGradGradGradGradGradGradGradGradGradGradGradGrad
 Berny optimization.
 Using GEDIIS/GDIIS optimizer.
 FormGI is forming the generalized inverse of G from B-inverse, IUseBI=4.
 Internal  Forces:  Max     0.000159656 RMS     0.000043560
 Search for a local minimum.
 Step number   3 out of a maximum of   79
 All quantities printed in internal units (Hartrees-Bohrs-Radians)
 Mixed Optimization -- En-DIIS/RFO-DIIS
 Swapping is turned off.
 Update second derivatives using D2CorX and points    1    2    3
 DE= -3.38D-05 DEPred=-2.61D-05 R= 1.29D+00
 TightC=F SS=  1.41D+00  RLast= 1.39D-01 DXNew= 8.4853D-01 4.1618D-01
 Trust test= 1.29D+00 RLast= 1.39D-01 DXMaxT set to 5.05D-01
 ITU=  1  1  0
     Eigenvalues ---    0.00173   0.00210   0.00318   0.00334   0.00934
     Eigenvalues ---    0.02383   0.03428   0.04323   0.04716   0.05327
     Eigenvalues ---    0.05965   0.06602   0.06942   0.07479   0.08136
     Eigenvalues ---    0.08545   0.09708   0.10310   0.11109   0.11745
     Eigenvalues ---    0.12434   0.13081   0.13759   0.17064   0.22134
     Eigenvalues ---    0.22909   0.25605   0.27723   0.33071   0.33665
     Eigenvalues ---    0.34596   0.34697   0.35482   0.36121   0.37190
     Eigenvalues ---    0.41748   0.48074   0.48955   0.51892   0.52302
     Eigenvalues ---    0.56852   0.72643
 En-DIIS/RFO-DIIS/Sim-DIIS IScMMF=       -3 using points:     3    2
 RFO step:  Lambda=-2.02856943D-06.
 DidBck=F Rises=F RFO-DIIS coefs:    1.09982   -0.09982
 Iteration  1 RMS(Cart)=  0.00227269 RMS(Int)=  0.00001040
 Iteration  2 RMS(Cart)=  0.00001068 RMS(Int)=  0.00000093
 Iteration  3 RMS(Cart)=  0.00000000 RMS(Int)=  0.00000093
 Variable       Old X    -DE/DX   Delta X   Delta X   Delta X     New X
                                 (Linear)    (Quad)   (Total)
    R1        3.06707   0.00000   0.00008  -0.00000   0.00007   3.06714
    R2        2.89416   0.00009   0.00003   0.00019   0.00021   2.89437
    R3        3.09633   0.00001   0.00015  -0.00002   0.00014   3.09646
    R4        3.58462  -0.00008   0.00007  -0.00073  -0.00066   3.58396
    R5        1.80374  -0.00000   0.00001   0.00001   0.00001   1.80376
    R6        1.80491  -0.00001   0.00017  -0.00019  -0.00003   1.80488
    R7        2.05199   0.00001   0.00001   0.00001   0.00002   2.05201
    R8        2.05678  -0.00000   0.00001  -0.00003  -0.00002   2.05676
    R9        2.89627  -0.00002  -0.00035   0.00006  -0.00029   2.89598
   R10        2.75516  -0.00007   0.00013  -0.00001   0.00011   2.75528
   R11        2.06450  -0.00001   0.00003  -0.00005  -0.00002   2.06447
   R12        2.06233  -0.00000   0.00004  -0.00004  -0.00000   2.06233
   R13        2.64666   0.00009  -0.00007   0.00032   0.00026   2.64691
   R14        1.83845   0.00003  -0.00023   0.00040   0.00017   1.83862
   R15        1.86312  -0.00016  -0.00008  -0.00021  -0.00029   1.86283
    A1        2.11637  -0.00000  -0.00014  -0.00047  -0.00061   2.11576
    A2        1.88640   0.00002   0.00025   0.00058   0.00082   1.88722
    A3        1.70756   0.00004  -0.00017   0.00065   0.00048   1.70804
    A4        2.13464   0.00002   0.00010  -0.00002   0.00008   2.13471
    A5        1.79605  -0.00010   0.00033  -0.00038  -0.00005   1.79600
    A6        1.70569   0.00000  -0.00059  -0.00031  -0.00090   1.70479
    A7        2.05337  -0.00002  -0.00012  -0.00017  -0.00029   2.05307
    A8        2.00506   0.00004   0.00012   0.00038   0.00050   2.00556
    A9        1.91855  -0.00000   0.00005   0.00031   0.00036   1.91890
   A10        1.98124  -0.00002   0.00003  -0.00031  -0.00028   1.98096
   A11        1.85627   0.00003  -0.00012  -0.00002  -0.00014   1.85613
   A12        1.95351   0.00005  -0.00020   0.00019  -0.00001   1.95350
   A13        1.84180   0.00003  -0.00012   0.00020   0.00008   1.84188
   A14        1.90453  -0.00008   0.00036  -0.00035   0.00001   1.90454
   A15        1.92014  -0.00001  -0.00001   0.00002   0.00001   1.92015
   A16        1.89550   0.00003  -0.00017   0.00022   0.00005   1.89555
   A17        1.91585  -0.00002   0.00008  -0.00014  -0.00006   1.91579
   A18        1.88956  -0.00001  -0.00006  -0.00000  -0.00006   1.88950
   A19        1.93126   0.00001   0.00002   0.00017   0.00019   1.93145
   A20        1.91097   0.00000   0.00013  -0.00026  -0.00013   1.91085
   A21        2.07732  -0.00006   0.00053  -0.00028   0.00025   2.07757
   A22        1.79434  -0.00002   0.00037  -0.00157  -0.00120   1.79314
   A23        1.81043  -0.00001   0.00060  -0.00138  -0.00078   1.80965
   A24        1.83208   0.00006  -0.00001   0.00030   0.00029   1.83237
    D1        2.81352   0.00006   0.00023   0.00180   0.00203   2.81555
    D2        0.21547  -0.00001  -0.00017   0.00163   0.00145   0.21693
    D3       -1.54419  -0.00003   0.00047   0.00161   0.00208  -1.54211
    D4        2.49109  -0.00003  -0.00398  -0.00750  -0.01148   2.47961
    D5       -0.10006  -0.00009  -0.00430  -0.00751  -0.01181  -0.11187
    D6       -2.03110   0.00002  -0.00432  -0.00680  -0.01112  -2.04223
    D7        2.84661   0.00005   0.00056  -0.00110  -0.00054   2.84606
    D8       -1.44936  -0.00001   0.00183  -0.00407  -0.00224  -1.45161
    D9       -1.26061   0.00003   0.00046  -0.00149  -0.00103  -1.26164
   D10        0.72661  -0.00003   0.00173  -0.00446  -0.00273   0.72388
   D11        0.93435   0.00002   0.00045  -0.00176  -0.00131   0.93304
   D12        2.92157  -0.00004   0.00172  -0.00473  -0.00301   2.91856
   D13        0.56942  -0.00002   0.00275  -0.00130   0.00145   0.57087
   D14       -1.49584  -0.00002   0.00293  -0.00144   0.00150  -1.49434
   D15        2.69861  -0.00003   0.00282  -0.00117   0.00166   2.70027
   D16        2.75382  -0.00000   0.00268  -0.00097   0.00171   2.75552
   D17        0.68856  -0.00000   0.00286  -0.00111   0.00175   0.69031
   D18       -1.40017  -0.00001   0.00275  -0.00084   0.00191  -1.39827
   D19       -1.49739   0.00001   0.00264  -0.00084   0.00180  -1.49559
   D20        2.72053   0.00001   0.00282  -0.00097   0.00184   2.72238
   D21        0.63180   0.00000   0.00271  -0.00071   0.00200   0.63380
   D22       -1.08488  -0.00004  -0.00252   0.00065  -0.00187  -1.08675
   D23       -3.06341   0.00003  -0.00367   0.00373   0.00006  -3.06335
   D24       -3.12262  -0.00006  -0.00246   0.00021  -0.00224  -3.12486
   D25        1.18203   0.00000  -0.00361   0.00330  -0.00031   1.18172
   D26        1.05859  -0.00009  -0.00235   0.00006  -0.00228   1.05631
   D27       -0.91994  -0.00003  -0.00350   0.00315  -0.00035  -0.92029
   D28       -1.54549   0.00003  -0.00051   0.00021  -0.00031  -1.54580
[...]
     6         -2.33160066         -1.10054439          2.87800047
     1         -1.30816957          0.08133960          4.20709016
     1         -3.37812933         -2.55231311          3.89161105
     6         -4.03090208          0.39610959          1.07269960
     1         -3.18134025          2.23222698          0.66164737
     1         -5.84826447          0.71655172          1.99340933
     8         -0.42704545         -2.45020935          1.41423130
     1         -1.41151349         -3.37266850          0.16505989
     8         -4.40148476         -0.98174550         -1.15672388
     1         -2.99078161         -0.48772140         -2.26846858

 Electric dipole moment (dipole orientation):
 (Debye = 10**-18 statcoulomb cm , SI units = C m)
                  (au)            (Debye)         (10**-30 SI)
   Tot        0.210386D+01      0.534748D+01      0.178373D+02
   x          0.000000D+00      0.000000D+00      0.000000D+00
   y          0.000000D+00      0.000000D+00      0.000000D+00
   z          0.210386D+01      0.534748D+01      0.178373D+02

 Dipole polarizability, Alpha (dipole orientation).
 (esu units = cm**3 , SI units = C**2 m**2 J**-1)
 Alpha(0;0):
               (au)            (10**-24 esu)      (10**-40 SI)
   iso        0.640604D+02      0.949277D+01      0.105621D+02
   aniso      0.119123D+02      0.176522D+01      0.196407D+01
   xx         0.709446D+02      0.105129D+02      0.116972D+02
   yx        -0.207159D+01     -0.306979D+00     -0.341560D+00
   yy         0.590263D+02      0.874680D+01      0.973213D+01
   zx        -0.204553D+01     -0.303117D+00     -0.337263D+00
   zy         0.863891D+00      0.128015D+00      0.142436D+00
   zz         0.622103D+02      0.921861D+01      0.102571D+02

 ----------------------------------------------------------------------
 Unable to Open any file for archive entry.
 1\1\GINC-GRA390\Freq\RwB97XD\def2TZVPP\C2H8O5Si1\ARHENDER\10-Apr-2024\
 0\\#N Geom=AllCheck Guess=TCheck SCRF=Check GenChk RwB97XD/def2TZVPP F
 req\\TS Opt product from SN1 like product derived from imag frequency 
 TS\\0,1\Si,1.0305337151,-0.2448013569,-0.2139292024\O,2.182138914,-1.3
 53475866,-0.4949443561\H,2.7605243886,-1.5841565918,0.2284795342\O,0.3
 443807169,0.4966411629,-1.3651761473\O,1.35570299,0.4755846113,1.22142
 64154\H,1.1736122497,1.4126811175,1.2516020284\C,-1.4583891805,-0.8807
 682638,1.1306188811\H,-1.0528158171,-0.4360575463,2.034427499\H,-2.079
 0925206,-1.737910809,1.3848388125\C,-2.2012236903,0.1190410285,0.23781
 6455\H,-1.7400012274,1.1061574819,0.317625411\H,-3.2334481942,0.194910
 5728,0.583898038\O,-0.3228148843,-1.4252616199,0.3958757454\H,-0.71764
 00891,-1.7458057437,-0.4335887861\O,-2.1851707836,-0.3281830811,-1.089
 4564549\H,-1.356384587,0.0425659036,-1.473371873\\Version=ES64L-G16Rev
 C.01\State=1-A\HF=-746.8548538\RMSD=1.997e-09\RMSF=7.887e-06\ZeroPoint
 =0.1238125\Thermal=0.133601\ETot=-746.7212528\HTot=-746.7203086\GTot=-
 746.7655983\Dipole=-0.3491616,-0.4639518,2.0221427\DipoleDeriv=2.40358
 62,-0.1305958,-0.0254251,-0.0465337,1.8148068,-0.0636806,0.0107732,0.1
 054257,1.8639029,-1.1131691,0.3043802,0.0891465,0.3968048,-0.8855422,-
 0.0505797,0.0614955,-0.0197058,-0.5379092,0.3609796,-0.029257,-0.03528
 01,-0.0301967,0.3344224,0.0066333,-0.0227774,0.0025362,0.2225091,-1.21
 90762,0.0067925,-0.0441921,-0.0578868,-0.8247659,0.120609,-0.0732042,0
 .0928761,-0.9604632,-0.7559329,-0.0968153,-0.11899,-0.0935909,-0.71671
 87,-0.21804,-0.1610243,-0.3468686,-1.0232384,0.3031843,0.06558,0.02109
 74,0.0693307,0.2824556,0.0728822,0.0296783,0.0563647,0.3266329,0.60702
 23,-0.0430627,-0.2431831,-0.157241,0.2587863,0.128272,-0.2874477,0.034
 5629,0.3203328,0.0422421,-0.0041376,-0.0762669,0.0167925,0.0526377,-0.
 0493769,-0.0071071,-0.0232488,-0.0103371,-0.0381207,-0.0424773,0.05828
 84,-0.0427083,-0.0632374,0.046209,0.0327698,0.0066604,0.0492084,0.2773
 082,-0.0126211,0.013382,-0.0305259,0.2779054,0.0468807,-0.072669,0.070
 8083,0.6426853,0.0470328,-0.0884131,-0.0425493,-0.0472643,-0.0960862,-
 0.0310076,-0.0165518,-0.005248,-0.0154049,-0.1243024,0.0403594,0.09436
 65,-0.0042066,0.0677904,0.0056477,0.0439102,-0.0005936,0.0145767,-1.11
 83254,-0.0262718,0.2856455,-0.0995734,-0.6483312,0.0933302,0.3559348,0
 .1132616,-0.6049096,0.3107355,-0.0446211,0.042614,-0.0298524,0.4118937
 ,0.0003802,0.08173,-0.0281016,0.3009714,-0.7810854,0.0393465,0.0316242
 ,0.0065736,-0.5004092,-0.0301051,0.0934219,0.0023411,-0.8777019,0.7979
 211,0.0618142,-0.0502779,0.1500785,0.2343924,-0.0780543,-0.0689322,-0.
 0610704,0.2891449\Polar=71.4509363,-1.793183,58.8723212,-0.9309245,-0.
 1592435,61.8580045\Quadrupole=1.304446,2.938155,-4.242601,0.228107,-1.
 5447119,2.4761723\PG=C01 [X(C2H8O5Si1)]\NImag=0\\0.42130293,-0.2170350
 9,0.46170974,0.18557473,-0.04610388,0.62076106,-0.16731951,0.13289335,
 0.02804126,0.40142100,0.12085648,-0.15392443,-0.03270560,-0.23413172,0
 .20554084,0.00575894,-0.01166416,-0.05285818,0.22486301,-0.06482625,0.
 37052420,-0.01489545,0.00867754,-0.01510163,-0.21224409,0.09129846,-0.
 23944661,0.22481775,0.01701153,-0.00873622,0.01416711,0.08149416,-0.04
 158494,0.08650273,-0.09690317,0.04937352,0.00753565,-0.00646360,0.0019
 7429,-0.26376578,0.10856001,-0.32000929,0.25315675,-0.10014114,0.32097
 529,-0.14033806,0.09599994,-0.15346194,-0.00703485,0.01390858,-0.01279
 449,0.00100689,0.00226874,0.00083980,0.15523502,0.10168105,-0.15424280
 ,0.16617014,0.01196407,-0.00246057,0.01123053,0.00071388,-0.00093163,-
 0.00115358,-0.10342927,0.16044130,-0.16043040,0.16451042,-0.30989602,-
 0.00122906,0.00238089,0.00523455,0.00115263,-0.00087771,0.00093363,0.1
 6343400,-0.18949508,0.32967807,-0.04969553,-0.01023639,-0.04073070,0.0
 0522151,0.01025585,0.00926361,0.00067671,-0.00268130,0.00032013,0.0069
 7477,-0.00297746,-0.01181951,0.06208684,-0.01555870,-0.09592987,-0.100
 62214,0.00555066,-0.01293707,-0.02099581,-0.00375532,0.00231008,-0.000
 88796,0.00240059,0.01049982,0.00496062,-0.08173744,0.64314519,-0.04288
 659,-0.07271315,-0.21744934,0.00270950,-0.01171972,-0.00225916,-0.0008
 5283,-0.00026905,-0.00214454,-0.01310488,-0.00850617,-0.01732308,0.052
 95837,0.13363849,0.25431785,0.00237438,-0.00476253,-0.00236921,-0.0001
 2127,0.00182357,0.00173060,0.00050761,-0.00044313,-0.00001843,-0.00185
 701,0.00070328,0.00083855,-0.02245687,0.10633261,0.00188641,0.02465716
 ,0.00353286,-0.01405387,0.00043740,-0.00081085,0.00178467,-0.00002592,
 -0.00002084,-0.00008349,0.00003259,0.00130065,0.00090556,0.00361998,0.
 09651243,-0.53434982,-0.03634049,-0.10016734,0.54536657,0.00368467,-0.
 02856209,-0.00723066,0.00025244,-0.00231149,-0.00340415,-0.00017592,0.
 00036831,-0.00019943,0.00150925,0.00410090,0.00232548,-0.00406489,-0.0
 0600545,-0.01574088,-0.00005150,0.03259757,0.02460839,-0.02320017,-0.0
 1170099,0.00982047,0.00235148,0.00013952,-0.00057005,-0.00059328,0.000
 09799,0.00002820,-0.00049191,0.00506171,-0.00422635,0.00089067,0.00383
 035,0.00334613,0.00098613,-0.00028059,-0.00036183,0.47241932,0.0032237
 1,0.01700640,0.00236929,-0.00446015,-0.00028652,0.00081789,-0.00001563
 ,-0.00008521,0.00046207,0.00221378,-0.00418891,0.00142059,0.00031183,-
 0.00244202,-0.00187937,-0.00083940,-0.00025841,0.00012860,0.11540075,0
 .56170144,0.01698964,0.01396158,-0.00454761,-0.00426487,-0.00102239,0.
 00155955,0.00058885,0.00009843,0.00021024,-0.00027714,-0.00298708,0.00
 327498,0.00053357,-0.00326683,-0.00434473,-0.00105449,-0.00016403,0.00
 067873,0.04622148,0.03167976,0.57588296,0.00160139,0.00199606,0.001814
 80,-0.00002639,-0.00035103,-0.00027406,-0.00004737,0.00005953,0.000043
 14,-0.00002334,-0.00055483,-0.00003249,-0.00065045,-0.00026958,-0.0007
 6497,-0.00000667,-0.00016739,-0.00000146,-0.09620920,-0.05164408,-0.10
 176254,0.09991075,-0.00095810,-0.00006623,0.00101671,0.00019839,-0.000
 18375,-0.00006590,-0.00001266,0.00007610,-0.00005882,-0.00039641,0.000
 09826,-0.00047455,-0.00004456,-0.00054918,-0.00020720,-0.00040947,-0.0
 0016251,0.00025870,-0.04293416,-0.09925044,-0.09301497,0.04463899,0.10
 419660,-0.00085645,-0.00197590,-0.00244532,0.00013868,0.00030228,0.000
 24522,0.00003357,-0.00007011,-0.00003472,0.00056916,0.00064864,0.00041
 949,-0.00148649,0.00011186,0.00123645,0.00038768,0.00026500,-0.0000959
 3,-0.08545118,-0.09334994,-0.23893769,0.09148325,0.10480380,0.26028204
 ,0.00296709,0.00413890,-0.00077454,-0.00133959,0.00015203,0.00027243,0
 .00002208,-0.00012647,0.00015868,0.00035088,-0.00122282,0.00069726,-0.
 00028923,-0.00051804,-0.00022163,-0.00006315,0.00010974,-0.00004123,-0
 .13001261,-0.12056778,0.02974881,-0.00427136,-0.00908238,0.00223325,0.
 15412790,-0.00029606,-0.00238125,-0.00057629,0.00059647,0.00015451,-0.
 00010658,0.00002794,-0.00000814,-0.00006293,-0.00031273,0.00077781,-0.
 00011785,-0.00049719,0.00041891,0.00052814,0.00026512,0.00009265,0.000
 00598,-0.13088085,-0.22701603,0.04827280,-0.00583232,-0.00824133,0.004
 26734,0.12671289,0.23874925,-0.00176599,-0.00313435,-0.00075363,0.0008
 1692,0.00012677,-0.00004465,0.00002496,-0.00000278,-0.00009207,-0.0001
 0272,0.00064565,-0.00019780,-0.00075595,0.00040299,0.00106114,0.000228
 81,0.00016565,-0.00012371,0.02549059,0.04415630,-0.06701188,-0.0151908
 1,-0.02042465,0.00922537,-0.04201275,-0.04981607,0.06743713,-0.0029842
 2,0.00268394,0.00097958,-0.00035284,-0.00051558,0.00011782,0.00003631,
 0.00007380,0.00003182,-0.00189603,0.00034910,-0.00095066,0.00077484,-0
 .00030540,-0.00061136,-0.00033150,-0.00005456,0.00004862,-0.09347573,0
 .02181668,-0.01450831,-0.00048668,0.00439576,-0.00567662,0.01015276,-0
 .01082382,0.01066135,0.60573503,0.00093164,0.00428770,-0.00030591,-0.0
 0033267,-0.00024180,0.00010594,0.00009337,0.00003309,0.00002994,-0.002
 04565,-0.00302881,-0.00266883,0.00037342,-0.00150500,-0.00004305,-0.00
 105805,0.00020875,-0.00021768,0.02473297,-0.14159663,0.03614364,-0.010
 18882,0.01278335,-0.00818493,0.01562413,-0.01871113,0.01635484,0.04640
 708,0.56460036,-0.00160266,-0.00546410,0.00929055,0.00035767,0.0011266
 1,-0.00150085,-0.00018463,0.00014845,0.00003929,-0.00933735,-0.0014796
 8,-0.00507254,0.00108755,0.00031103,-0.00264718,-0.00052936,0.00000674
 ,0.00049697,-0.03295238,0.04883156,-0.09589010,-0.00848399,0.01695724,
 -0.00993655,-0.00372441,0.00121556,-0.00153323,-0.06936515,0.02158014,
 0.48152030,-0.00099377,0.00148071,-0.00023159,0.00018259,-0.00030276,0
 .00007297,-0.00002861,0.00002155,-0.00001030,0.00007193,-0.00025129,0.
 00083424,0.00027122,-0.00016309,0.00020804,-0.00028424,-0.00016684,-0.
 00020133,0.00804901,0.01802483,-0.00151275,0.00093028,-0.00068341,0.00
 072532,-0.00091178,0.00274617,-0.00185566,-0.10383593,-0.10208419,-0.0
 0477738,0.10363652,0.00082037,-0.00259449,-0.00018725,0.00000575,0.000
 36932,-0.00005493,-0.00001168,-0.00005061,-0.00002611,-0.00038653,0.00
 132676,0.00154143,-0.00070113,0.00056085,0.00015033,0.00052986,0.00015
 205,0.00007630,-0.01110041,-0.01983180,0.00303074,0.00026511,0.0008974
 7,0.00005752,0.00245434,-0.00130187,0.00210626,-0.09763892,-0.25962337
 ,-0.00981751,0.10860573,0.28274673,0.00058081,-0.00016937,0.00090924,-
 0.00020300,0.00007965,-0.00012419,-0.00000595,0.00004062,0.00000160,-0
 .00002263,0.00099645,-0.00002219,0.00015797,-0.00019428,-0.00044441,-0
 .00024378,-0.00004580,0.00014356,0.00934700,0.01907741,-0.00127125,0.0
 0026268,0.00003264,0.00063755,-0.00252690,0.00270566,-0.00150325,-0.00
 164505,-0.00441698,-0.04834878,0.00898900,0.01539319,0.06586873,0.0015
 1304,0.00002251,0.00014178,-0.00033923,0.00013117,-0.00001049,0.000055
 43,-0.00001751,0.00001325,-0.00065367,0.00003708,0.00033404,-0.0002568
 1,-0.00013241,-0.00031522,0.00006976,0.00010388,0.00011622,-0.01491398
 ,-0.00125465,0.00494281,-0.00030560,0.00070822,-0.00063244,0.00122185,
 0.00036407,0.00012942,-0.29279344,0.01367044,0.07211962,-0.01120426,0.
 00108790,0.00276553,0.31096283,-0.00025236,-0.00209230,0.00079915,0.00
 022451,0.00024934,-0.00021172,-0.00005232,0.00000011,-0.00002548,-0.00
 035275,0.00106477,0.00060715,-0.00023641,0.00037179,0.00001584,0.00025
 056,0.00004730,0.00010090,0.02194554,-0.00151702,-0.00500430,0.0002818
 9,-0.00019636,0.00081495,-0.00023293,0.00055136,-0.00085077,0.00839307
 ,-0.05302314,-0.00254978,-0.02762477,0.00388512,0.00798776,-0.01772337
 ,0.05332194,0.00071509,0.00161001,-0.00138404,-0.00019258,-0.00025813,
 0.00023531,0.00003036,-0.00001263,0.00001120,0.00154540,0.00018049,0.0
 0106145,-0.00009850,-0.00022162,0.00021104,-0.00000890,0.00000249,-0.0
 0004946,-0.01370324,-0.00048713,0.00821391,0.00073547,-0.00086880,-0.0
 0063136,0.00013437,0.00011471,0.00112406,0.06366289,-0.00216755,-0.066
 07957,-0.00085944,0.00095421,0.00201471,-0.08085743,0.00550255,0.08583
 073,-0.01956957,0.00099678,0.00778273,-0.02194478,-0.00297054,0.007884
 94,0.00029972,-0.00102120,0.00209127,0.00589275,-0.00963455,0.00605152
 ,-0.00280056,-0.01329334,-0.00575031,-0.00311004,0.00049883,-0.0000845
 4,-0.13564979,0.00386513,0.01423332,0.00606849,-0.00105420,-0.00226842
 ,-0.03116981,0.01805908,0.02347612,-0.03365283,0.01396520,0.01416305,0
 .00032425,0.00130481,-0.00036585,-0.00086174,0.00550487,-0.00511150,0.
 37023542,0.00002976,-0.04328745,0.00607480,0.00512198,0.00583625,-0.00
 168594,-0.00012281,-0.00034695,-0.00022471,-0.00924721,-0.00890422,0.0
 1416700,-0.00752234,-0.00859247,-0.00422873,-0.00224254,0.00056389,0.0
 0004156,0.02540843,-0.08942359,-0.02234532,0.01688180,-0.00649306,-0.0
 0860386,-0.01586613,0.01409169,0.01051348,0.03092482,-0.00863537,-0.01
 568975,-0.00134568,0.00124446,-0.00049420,0.00207074,-0.00367282,0.003
 85828,0.03105054,0.21469819,-0.00445814,-0.00348212,-0.03760601,0.0108
 4637,0.00129566,0.00284999,0.00113307,0.00027215,-0.00166032,0.0076927
 1,0.01792156,-0.00685658,-0.00604456,-0.01044278,0.00251983,-0.0017845
 5,-0.00049437,-0.00112956,0.04673791,-0.03027507,-0.09901758,0.0323440
 3,-0.01415638,-0.01643157,0.01630215,-0.00790825,-0.00924249,-0.006391
 66,0.00127458,-0.00340513,0.00033840,-0.00068210,0.00104981,-0.0015079
 6,0.00100171,0.00034500,0.07271248,0.15361601,0.50705951,-0.00897827,-
 0.01277203,-0.01192612,0.00110956,0.00132789,0.00179249,0.00018763,0.0
 0021767,-0.00037903,-0.00197823,0.00413105,-0.00076511,-0.00055550,-0.
 00136599,0.00068552,-0.00043918,-0.00013844,-0.00010602,0.01291088,0.0
 1419731,0.02845031,-0.00539790,0.00263232,0.00248855,-0.00040378,-0.00
 055342,0.00098938,-0.00137974,0.00378922,0.00596333,-0.00002094,-0.000
 69042,-0.00086914,0.00009855,-0.00012134,-0.00061364,-0.12765381,-0.07
 127887,-0.15764832,0.12750969,-0.01415129,-0.00380383,-0.01096685,0.00
 090994,-0.00205657,0.00064861,0.00013292,0.00019596,-0.00003128,0.0038
 1464,0.00354235,-0.00018667,-0.00072382,-0.00208921,0.00072814,-0.0005
 1898,-0.00012444,-0.00045884,-0.00207338,-0.00411419,-0.01776924,0.002
 38013,-0.00072328,-0.00064965,-0.00059521,0.00051818,0.00121256,0.0003
 8815,-0.00299789,-0.00373405,0.00020718,0.00012810,0.00030717,-0.00065
 332,0.00054626,0.00009023,-0.05261983,-0.06988134,-0.11874715,0.066701
 91,0.08246892,-0.00504206,-0.00534237,0.01210768,0.00118806,0.00010538
 ,-0.00189972,-0.00045239,-0.00002579,0.00007336,-0.00167875,0.00019429
 ,-0.00444579,0.00172714,0.00322623,0.00019868,0.00044829,0.00000431,0.
 00027099,0.00197166,-0.01418300,-0.02463260,0.00274693,0.00067557,-0.0
 0103775,-0.00073001,0.00078750,0.00023600,-0.00208616,0.00069268,0.004
 70159,0.00000661,-0.00032575,-0.00100472,-0.00008809,0.00029211,-0.001
 33925,-0.13439905,-0.13211874,-0.34276068,0.13438511,0.14586104,0.3640
 0514,0.00195661,-0.00838018,0.01219254,-0.00183898,0.00261036,-0.00142
 381,0.00023200,0.00006936,0.00009799,-0.03209040,-0.00629301,-0.006990
 33,-0.00024632,-0.00010327,-0.00412129,-0.00026955,0.00055570,0.000854
 68,-0.00756882,0.00292130,-0.01326729,-0.00008867,0.00205386,-0.001160
 67,0.00008540,0.00018178,-0.00063837,-0.08562053,-0.00861854,0.0268148
 8,0.00400105,-0.00173118,-0.01239215,0.00645208,0.01037050,0.03622547,
 0.00200173,-0.00028635,-0.01352296,0.00035315,-0.00440639,0.00146979,0
 .40505036,-0.00375287,-0.00832818,0.00513116,0.00012042,0.00150793,-0.
 00090449,-0.00015732,0.00007694,-0.00002346,-0.01147300,0.00458894,-0.
 00282532,-0.00001924,0.00170165,-0.00057236,0.00064686,-0.00000743,0.0
 0023757,0.00323176,0.01203742,0.01155984,0.00239267,-0.00242278,0.0019
 1986,-0.00099857,0.00235777,-0.00141849,-0.02099391,-0.09791758,-0.042
 53173,0.00061512,-0.00810490,-0.03913713,0.00047061,0.00184380,-0.0024
 9058,0.00799351,0.00433963,0.01043755,-0.00826116,0.00274140,-0.003837
 65,0.15419775,0.17272680,0.00224655,0.00659828,-0.01147560,0.00008022,
 -0.00125794,0.00182234,0.00020381,-0.00020452,-0.00012011,0.01289507,0
 .00027325,0.01019076,-0.00139409,-0.00051377,0.00394950,0.00071209,-0.
 00010008,-0.00071950,-0.00722129,-0.00818570,-0.05156013,-0.00274984,0
 .00550109,-0.00261483,0.00040304,0.00091847,0.00129589,-0.01000965,-0.
 06999456,-0.23014963,-0.00232367,-0.01208145,-0.01991570,0.00422412,-0
 .00736244,-0.02569598,-0.00163905,-0.00381142,0.00362231,-0.00069603,0
 .00074128,-0.00380212,-0.12483810,0.03138994,0.42133245,-0.00374088,0.
 01599749,-0.02175217,0.00227540,-0.00423228,0.00276270,-0.00003333,-0.
 00012155,-0.00014314,0.01683126,-0.00027799,0.01310167,0.00005472,-0.0
 0091164,0.00683511,0.00034445,-0.00080725,-0.00137716,0.00450802,-0.00
 319364,-0.00506139,-0.00099727,0.00094782,-0.00052717,-0.00046664,0.00
 024288,0.00050471,0.00011054,0.00474046,0.01045120,-0.00018731,-0.0028
 1359,-0.00382855,0.00095520,-0.00037469,-0.00160384,-0.00840942,-0.003
 57615,0.00325103,0.00463789,0.00120736,0.00053291,-0.29240912,-0.12401
 262,0.13010681,0.27652651,0.00391707,0.00643707,-0.00469784,0.00065569
 ,-0.00176721,0.00123600,0.00010765,-0.00023862,0.00001446,0.00573663,-
 0.00948864,0.00343794,-0.00007623,-0.00061367,0.00141835,-0.00011042,-
 0.00008148,-0.00036087,-0.00087865,-0.00073449,0.00082738,0.00011188,0
 .00023714,-0.00035686,0.00001830,-0.00005240,-0.00003738,0.01489980,0.
 00536747,-0.00891074,0.00092075,0.00019619,-0.00216278,0.00111465,-0.0
 0138016,-0.00580653,-0.00264508,-0.00153683,0.00036898,0.00218428,-0.0
 0435043,0.00399416,-0.14314169,-0.08714140,0.05808958,0.11718538,0.095
 14745,-0.00604380,-0.00160520,0.00060361,0.00036114,0.00012426,-0.0003
 7095,-0.00010403,0.00000593,0.00004161,0.00229452,0.00125968,-0.009304
 42,0.00034633,0.00049942,-0.00114116,-0.00017220,0.00003895,0.00016919
 ,0.00152286,-0.00058327,-0.00260681,-0.00017013,0.00002552,0.00011960,
 0.00008148,-0.00022820,0.00012312,0.03574254,0.01181774,-0.03148513,0.
 00059752,-0.00013487,0.00200931,-0.00137517,-0.00111763,-0.00386776,0.
 00122330,0.00093153,0.00066348,-0.00175128,0.00295469,-0.00067080,0.10
 069963,0.03306530,-0.09615965,-0.13325272,-0.04705385,0.14187677\\0.00
 000173,-0.00002420,-0.00000658,0.00000084,-0.00000617,0.00000114,-0.00
 000033,-0.00000307,0.00000108,-0.00001116,0.00001886,-0.00001266,0.000
 01375,-0.00000555,0.00001815,-0.00000669,0.00001337,-0.00000049,0.0000
 0014,-0.00000390,-0.00000575,0.00000190,0.00000138,0.00000006,-0.00000
 380,0.00000119,-0.00000478,0.00000215,-0.00000068,0.00000546,0.0000032
 7,0.00000224,-0.00000177,0.00000072,0.00000391,0.00000038,0.00000271,-
 0.00000605,0.00002182,-0.00000731,0.00000472,-0.00000588,-0.00000149,-
 0.00000132,-0.00000593,0.00000356,0.00000525,-0.00000427\\\@
 The archive entry for this job was punched.


 ALMOST ANYTHING IS EASIER TO GET INTO THAN OUT OF.

                         -- AGNES ALLEN'S LAW FROM
                PAUL DICKSON'S "THE OFFICIAL RULES"
 Job cpu time:       0 days  2 hours 23 minutes  1.2 seconds.
 Elapsed time:       0 days  0 hours 35 minutes 46.0 seconds.
 File lengths (MBytes):  RWF=    196 Int=      0 D2E=      0 Chk=     12 Scr=      1
 Normal termination of Gaussian 16 at Wed Apr 10 04:10:18 2024.
