 Entering Gaussian System, Link 0=/opt/software/gaussian/g16.c01/g16
 Initial command:
 /opt/software/gaussian/g16.c01/l1.exe "/scratch/arhender/16030993/Gau-57695.inp" -scrdir="/scratch/arhender/16030993/"
 Entering Link 1 = /opt/software/gaussian/g16.c01/l1.exe PID=     57696.
  
 Copyright (c) 1988-2019, Gaussian, Inc.  All Rights Reserved.
  
 This is part of the Gaussian(R) 16 program.  It is based on
 the Gaussian(R) 09 system (copyright 2009, Gaussian, Inc.),
 the Gaussian(R) 03 system (copyright 2003, Gaussian, Inc.),
 the Gaussian(R) 98 system (copyright 1998, Gaussian, Inc.),
 the Gaussian(R) 94 system (copyright 1995, Gaussian, Inc.),
 the Gaussian 92(TM) system (copyright 1992, Gaussian, Inc.),
 the Gaussian 90(TM) system (copyright 1990, Gaussian, Inc.),
 the Gaussian 88(TM) system (copyright 1988, Gaussian, Inc.),
 the Gaussian 86(TM) system (copyright 1986, Carnegie Mellon
 University), and the Gaussian 82(TM) system (copyright 1983,
 Carnegie Mellon University). Gaussian is a federally registered
 trademark of Gaussian, Inc.
  
 This software contains proprietary and confidential information,
 including trade secrets, belonging to Gaussian, Inc.
  
 This software is provided under written license and may be
 used, copied, transmitted, or stored only in accord with that
 written license.
  
 The following legend is applicable only to US Government
 contracts under FAR:
  
                    RESTRICTED RIGHTS LEGEND
  
 Use, reproduction and disclosure by the US Government is
 subject to restrictions as set forth in subparagraphs (a)
 and (c) of the Commercial Computer Software - Restricted
 Rights clause in FAR 52.227-19.
  
 Gaussian, Inc.
 340 Quinnipiac St., Bldg. 40, Wallingford CT 06492
  
  
 ---------------------------------------------------------------
 Warning -- This program may not be used in any manner that
 competes with the business of Gaussian, Inc. or will provide
 assistance to any competitor of Gaussian, Inc.  The licensee
 of this program is prohibited from giving any competitor of
 Gaussian, Inc. access to this program.  By using this program,
 the user acknowledges that Gaussian, Inc. is engaged in the
 business of creating and licensing software in the field of
 computational chemistry and represents and warrants to the
 licensee that it is not a competitor of Gaussian, Inc. and that
 it will not use this program in any manner prohibited above.
 ---------------------------------------------------------------
  

 Cite this work as:
 Gaussian 16, Revision C.01,
 M. J. Frisch, G. W. Trucks, H. B. Schlegel, G. E. Scuseria, 
 M. A. Robb, J. R. Cheeseman, G. Scalmani, V. Barone, 
 G. A. Petersson, H. Nakatsuji, X. Li, M. Caricato, A. V. Marenich, 
 J. Bloino, B. G. Janesko, R. Gomperts, B. Mennucci, H. P. Hratchian, 
 J. V. Ortiz, A. F. Izmaylov, J. L. Sonnenberg, D. Williams-Young, 
 F. Ding, F. Lipparini, F. Egidi, J. Goings, B. Peng, A. Petrone, 
 T. Henderson, D. Ranasinghe, V. G. Zakrzewski, J. Gao, N. Rega, 
 G. Zheng, W. Liang, M. Hada, M. Ehara, K. Toyota, R. Fukuda, 
 J. Hasegawa, M. Ishida, T. Nakajima, Y. Honda, O. Kitao, H. Nakai, 
 T. Vreven, K. Throssell, J. A. Montgomery, Jr., J. E. Peralta, 
 F. Ogliaro, M. J. Bearpark, J. J. Heyd, E. N. Brothers, K. N. Kudin, 
 V. N. Staroverov, T. A. Keith, R. Kobayashi, J. Normand, 
 K. Raghavachari, A. P. Rendell, J. C. Burant, S. S. Iyengar, 
 J. Tomasi, M. Cossi, J. M. Millam, M. Klene, C. Adamo, R. Cammi, 
 J. W. Ochterski, R. L. Martin, K. Morokuma, O. Farkas, 
 J. B. Foresman, and D. J. Fox, Gaussian, Inc., Wallingford CT, 2019.
 
 ******************************************
 Gaussian 16:  ES64L-G16RevC.01  3-Jul-2019
                22-Oct-2023 
 ******************************************
 %chk=HL3EthyleneGlycolConformerOpt_6.chk
 %mem=8GB
 %nprocs=16
 Will use up to   16 processors via shared memory.
 ---------------------------------------------
 # opt freq wb97xd/Def2TZVPP geom=connectivity
 ---------------------------------------------
 1/18=20,19=15,26=3,38=1,57=2/1,3;
 2/9=110,12=2,17=6,18=5,40=1/2;
 3/5=44,7=202,11=2,25=1,30=1,71=1,74=-58/1,2,3;
 4//1;
 5/5=2,38=5/2;
 6/7=2,8=2,9=2,10=2,28=1/1;
 7//1,2,3,16;
 1/18=20,19=15,26=3/3(2);
 2/9=110/2;
 99//99;
 2/9=110/2;
 3/5=44,7=202,11=2,25=1,30=1,71=1,74=-58/1,2,3;
 4/5=5,16=3,69=1/1;
 5/5=2,38=5/2;
 7//1,2,3,16;
 1/18=20,19=15,26=3/3(-5);
 2/9=110/2;
 6/7=2,8=2,9=2,10=2,19=2,28=1/1;
 99/9=1/99;
 -------------------
 Title Card Required
 -------------------
 Symbolic Z-matrix:
 Charge = -2 Multiplicity = 1
 Si                    0.        0.        0. 
 O                     1.7083    0.        0. 
 O                    -1.7092   -0.0123    0.0083 
 O                     0.0282   -0.3532   -1.6717 
 O                    -0.0094    0.3609    1.6695 
 O                     0.0155   -1.6771    0.3264 
 O                    -0.0273    1.6727   -0.3476 
 C                     1.2441    2.1371   -0.7816 
 H                     1.3361    1.9755   -1.8628 
 H                     1.3411    3.2083   -0.5834 
 C                     2.2365    1.3206    0. 
 H                     3.2291    1.3324   -0.4602 
 H                     2.3297    1.6709    1.0355 
 C                    -2.2349    0.0435   -1.3112 
 H                    -3.2367   -0.3945   -1.3346 
 H                    -2.3081    1.0915   -1.6274 
 C                    -1.2558   -0.734    -2.1499 
 H                    -1.3487   -0.4952   -3.214 
 H                    -1.3782   -1.8167   -2.0251 
 C                     0.2894   -1.9419    1.6967 
 H                     1.3752   -1.9975    1.8422 
 H                    -0.1482   -2.9006    1.9917 
 C                    -0.3215   -0.7886    2.4472 
 H                    -1.4114   -0.8837    2.5306 
 H                     0.0938   -0.6858    3.454 
 

 GradGradGradGradGradGradGradGradGradGradGradGradGradGradGradGradGradGrad
 Berny optimization.
 Initialization pass.
                           ----------------------------
                           !    Initial Parameters    !
                           ! (Angstroms and Degrees)  !
 --------------------------                            --------------------------
 ! Name  Definition              Value          Derivative Info.                !
 --------------------------------------------------------------------------------
 ! R1    R(1,2)                  1.7083         estimate D2E/DX2                !
 ! R2    R(1,3)                  1.7093         estimate D2E/DX2                !
 ! R3    R(1,4)                  1.7088         estimate D2E/DX2                !
 ! R4    R(1,5)                  1.7081         estimate D2E/DX2                !
 ! R5    R(1,6)                  1.7086         estimate D2E/DX2                !
 ! R6    R(1,7)                  1.7087         estimate D2E/DX2                !
 ! R7    R(2,11)                 1.4223         estimate D2E/DX2                !
 ! R8    R(3,14)                 1.4215         estimate D2E/DX2                !
 ! R9    R(4,17)                 1.4221         estimate D2E/DX2                !
 ! R10   R(5,23)                 1.4225         estimate D2E/DX2                !
 ! R11   R(6,20)                 1.4223         estimate D2E/DX2                !
 ! R12   R(7,8)                  1.4214         estimate D2E/DX2                !
 ! R13   R(8,9)                  1.0971         estimate D2E/DX2                !
 ! R14   R(8,10)                 1.0937         estimate D2E/DX2                !
 ! R15   R(8,11)                 1.5041         estimate D2E/DX2                !
 ! R16   R(11,12)                1.0942         estimate D2E/DX2                !
 ! R17   R(11,13)                1.0971         estimate D2E/DX2                !
 ! R18   R(14,15)                1.0936         estimate D2E/DX2                !
 ! R19   R(14,16)                1.0971         estimate D2E/DX2                !
 ! R20   R(14,17)                1.5055         estimate D2E/DX2                !
 ! R21   R(17,18)                1.0945         estimate D2E/DX2                !
 ! R22   R(17,19)                1.0967         estimate D2E/DX2                !
 ! R23   R(20,21)                1.0969         estimate D2E/DX2                !
 ! R24   R(20,22)                1.0944         estimate D2E/DX2                !
 ! R25   R(20,23)                1.5055         estimate D2E/DX2                !
 ! R26   R(23,24)                1.0972         estimate D2E/DX2                !
 ! R27   R(23,25)                1.0939         estimate D2E/DX2                !
 ! A1    A(2,1,4)               89.0544         estimate D2E/DX2                !
 ! A2    A(2,1,5)               90.3153         estimate D2E/DX2                !
 ! A3    A(2,1,6)               89.4802         estimate D2E/DX2                !
 ! A4    A(2,1,7)               90.9155         estimate D2E/DX2                !
 ! A5    A(3,1,4)               91.1325         estimate D2E/DX2                !
 ! A6    A(3,1,5)               89.4999         estimate D2E/DX2                !
 ! A7    A(3,1,6)               90.0619         estimate D2E/DX2                !
 ! A8    A(3,1,7)               89.5448         estimate D2E/DX2                !
 ! A9    A(4,1,6)               89.0748         estimate D2E/DX2                !
 ! A10   A(4,1,7)               90.2057         estimate D2E/DX2                !
 ! A11   A(5,1,6)               91.1875         estimate D2E/DX2                !
 ! A12   A(5,1,7)               89.5364         estimate D2E/DX2                !
 ! A13   A(1,2,11)             111.7999         estimate D2E/DX2                !
 ! A14   A(1,3,14)             111.4092         estimate D2E/DX2                !
 ! A15   A(1,4,17)             111.6789         estimate D2E/DX2                !
 ! A16   A(1,5,23)             111.3968         estimate D2E/DX2                !
 ! A17   A(1,6,20)             111.6256         estimate D2E/DX2                !
 ! A18   A(1,7,8)              111.5714         estimate D2E/DX2                !
 ! A19   A(7,8,9)              109.1347         estimate D2E/DX2                !
 ! A20   A(7,8,10)             110.1202         estimate D2E/DX2                !
 ! A21   A(7,8,11)             104.7221         estimate D2E/DX2                !
 ! A22   A(9,8,10)             108.387          estimate D2E/DX2                !
 ! A23   A(9,8,11)             112.1372         estimate D2E/DX2                !
 ! A24   A(10,8,11)            112.271          estimate D2E/DX2                !
 ! A25   A(2,11,8)             105.0105         estimate D2E/DX2                !
 ! A26   A(2,11,12)            110.2985         estimate D2E/DX2                !
 ! A27   A(2,11,13)            109.1478         estimate D2E/DX2                !
 ! A28   A(8,11,12)            111.9706         estimate D2E/DX2                !
 ! A29   A(8,11,13)            111.9116         estimate D2E/DX2                !
 ! A30   A(12,11,13)           108.4495         estimate D2E/DX2                !
 ! A31   A(3,14,15)            110.0549         estimate D2E/DX2                !
 ! A32   A(3,14,16)            109.2513         estimate D2E/DX2                !
 ! A33   A(3,14,17)            104.8528         estimate D2E/DX2                !
 ! A34   A(15,14,16)           108.3785         estimate D2E/DX2                !
 ! A35   A(15,14,17)           112.1472         estimate D2E/DX2                !
 ! A36   A(16,14,17)           112.0956         estimate D2E/DX2                !
 ! A37   A(4,17,14)            105.1636         estimate D2E/DX2                !
 ! A38   A(4,17,18)            110.19           estimate D2E/DX2                !
 ! A39   A(4,17,19)            109.078          estimate D2E/DX2                !
 ! A40   A(14,17,18)           111.9459         estimate D2E/DX2                !
 ! A41   A(14,17,19)           111.9538         estimate D2E/DX2                !
 ! A42   A(18,17,19)           108.4543         estimate D2E/DX2                !
 ! A43   A(6,20,21)            109.1391         estimate D2E/DX2                !
 ! A44   A(6,20,22)            110.2311         estimate D2E/DX2                !
 ! A45   A(6,20,23)            105.0415         estimate D2E/DX2                !
 ! A46   A(21,20,22)           108.4004         estimate D2E/DX2                !
 ! A47   A(21,20,23)           111.9854         estimate D2E/DX2                !
 ! A48   A(22,20,23)           111.9907         estimate D2E/DX2                !
 ! A49   A(5,23,20)            104.9197         estimate D2E/DX2                !
 ! A50   A(5,23,24)            109.2403         estimate D2E/DX2                !
 ! A51   A(5,23,25)            110.1165         estimate D2E/DX2                !
 ! A52   A(20,23,24)           111.9975         estimate D2E/DX2                !
 ! A53   A(20,23,25)           112.1317         estimate D2E/DX2                !
 ! A54   A(24,23,25)           108.3787         estimate D2E/DX2                !
 ! A55   L(2,1,3,4,-1)         180.187          estimate D2E/DX2                !
 ! A56   L(4,1,5,2,-1)         179.3697         estimate D2E/DX2                !
 ! A57   L(6,1,7,2,-1)         180.3957         estimate D2E/DX2                !
 ! A58   L(2,1,3,4,-2)         179.539          estimate D2E/DX2                !
 ! A59   L(4,1,5,2,-2)         179.732          estimate D2E/DX2                !
 ! A60   L(6,1,7,2,-2)         179.2739         estimate D2E/DX2                !
 ! D1    D(4,1,2,11)           101.9301         estimate D2E/DX2                !
 ! D2    D(5,1,2,11)           -77.8019         estimate D2E/DX2                !
 ! D3    D(6,1,2,11)          -168.9867         estimate D2E/DX2                !
 ! D4    D(7,1,2,11)            11.7394         estimate D2E/DX2                !
 ! D5    D(4,1,3,14)           -14.5179         estimate D2E/DX2                !
 ! D6    D(5,1,3,14)           165.2192         estimate D2E/DX2                !
 ! D7    D(6,1,3,14)          -103.5938         estimate D2E/DX2                !
 ! D8    D(7,1,3,14)            75.6789         estimate D2E/DX2                !
 ! D9    D(2,1,4,17)           168.0458         estimate D2E/DX2                !
 ! D10   D(3,1,4,17)           -11.4932         estimate D2E/DX2                !
 ! D11   D(6,1,4,17)            78.5505         estimate D2E/DX2                !
 ! D12   D(7,1,4,17)          -101.042          estimate D2E/DX2                !
 ! D13   D(2,1,5,23)          -103.5025         estimate D2E/DX2                !
 ! D14   D(3,1,5,23)            76.0357         estimate D2E/DX2                !
 ! D15   D(6,1,5,23)           -14.0158         estimate D2E/DX2                !
 ! D16   D(7,1,5,23)           165.5846         estimate D2E/DX2                !
 ! D17   D(2,1,6,20)            78.254          estimate D2E/DX2                !
 ! D18   D(3,1,6,20)          -101.5516         estimate D2E/DX2                !
 ! D19   D(4,1,6,20)           167.3167         estimate D2E/DX2                !
 ! D20   D(5,1,6,20)           -12.0506         estimate D2E/DX2                !
 ! D21   D(2,1,7,8)             14.4759         estimate D2E/DX2                !
 ! D22   D(3,1,7,8)           -165.7126         estimate D2E/DX2                !
 ! D23   D(4,1,7,8)            -74.5817         estimate D2E/DX2                !
 ! D24   D(5,1,7,8)            104.7839         estimate D2E/DX2                !
 ! D25   D(1,2,11,8)           -32.5469         estimate D2E/DX2                !
 ! D26   D(1,2,11,12)         -153.3559         estimate D2E/DX2                !
 ! D27   D(1,2,11,13)           87.5915         estimate D2E/DX2                !
 ! D28   D(1,3,14,15)          155.1563         estimate D2E/DX2                !
 ! D29   D(1,3,14,16)          -85.961          estimate D2E/DX2                !
 ! D30   D(1,3,14,17)           34.3586         estimate D2E/DX2                !
 ! D31   D(1,4,17,14)           32.1858         estimate D2E/DX2                !
 ! D32   D(1,4,17,18)          152.9977         estimate D2E/DX2                !
 ! D33   D(1,4,17,19)          -88.0518         estimate D2E/DX2                !
 ! D34   D(1,5,23,20)           34.0696         estimate D2E/DX2                !
 ! D35   D(1,5,23,24)          -86.1664         estimate D2E/DX2                !
 ! D36   D(1,5,23,25)          154.9204         estimate D2E/DX2                !
 ! D37   D(1,6,20,21)          -87.6011         estimate D2E/DX2                !
 ! D38   D(1,6,20,22)          153.4522         estimate D2E/DX2                !
 ! D39   D(1,6,20,23)           32.6369         estimate D2E/DX2                !
 ! D40   D(1,7,8,9)             85.7203         estimate D2E/DX2                !
 ! D41   D(1,7,8,10)          -155.4187         estimate D2E/DX2                !
 ! D42   D(1,7,8,11)           -34.516          estimate D2E/DX2                !
 ! D43   D(7,8,11,2)            41.344          estimate D2E/DX2                !
 ! D44   D(7,8,11,12)          161.0447         estimate D2E/DX2                !
 ! D45   D(7,8,11,13)          -76.9433         estimate D2E/DX2                !
 ! D46   D(9,8,11,2)           -76.871          estimate D2E/DX2                !
 ! D47   D(9,8,11,12)           42.8297         estimate D2E/DX2                !
 ! D48   D(9,8,11,13)          164.8417         estimate D2E/DX2                !
 ! D49   D(10,8,11,2)          160.8126         estimate D2E/DX2                !
 ! D50   D(10,8,11,12)         -79.4866         estimate D2E/DX2                !
 ! D51   D(10,8,11,13)          42.5253         estimate D2E/DX2                !
 ! D52   D(3,14,17,4)          -41.1393         estimate D2E/DX2                !
 ! D53   D(3,14,17,18)        -160.7905         estimate D2E/DX2                !
 ! D54   D(3,14,17,19)          77.1786         estimate D2E/DX2                !
 ! D55   D(15,14,17,4)        -160.5441         estimate D2E/DX2                !
 ! D56   D(15,14,17,18)         79.8047         estimate D2E/DX2                !
 ! D57   D(15,14,17,19)        -42.2262         estimate D2E/DX2                !
 ! D58   D(16,14,17,4)          77.2727         estimate D2E/DX2                !
 ! D59   D(16,14,17,18)        -42.3785         estimate D2E/DX2                !
 ! D60   D(16,14,17,19)       -164.4093         estimate D2E/DX2                !
 ! D61   D(6,20,23,5)          -41.2373         estimate D2E/DX2                !
 ! D62   D(6,20,23,24)          77.1508         estimate D2E/DX2                !
 ! D63   D(6,20,23,25)        -160.7492         estimate D2E/DX2                !
 ! D64   D(21,20,23,5)          77.0967         estimate D2E/DX2                !
 ! D65   D(21,20,23,24)       -164.5152         estimate D2E/DX2                !
 ! D66   D(21,20,23,25)        -42.4152         estimate D2E/DX2                !
 ! D67   D(22,20,23,5)        -160.8869         estimate D2E/DX2                !
 ! D68   D(22,20,23,24)        -42.4988         estimate D2E/DX2                !
 ! D69   D(22,20,23,25)         79.6012         estimate D2E/DX2                !
 --------------------------------------------------------------------------------
 Trust Radius=3.00D-01 FncErr=1.00D-07 GrdErr=1.00D-06 EigMax=2.50D+02 EigMin=1.00D-04
 Number of steps in this run=    150 maximum allowed number of steps=    150.
 GradGradGradGradGradGradGradGradGradGradGradGradGradGradGradGradGradGrad

                          Input orientation:                          
 ---------------------------------------------------------------------
 Center     Atomic      Atomic             Coordinates (Angstroms)
 Number     Number       Type             X           Y           Z
 ---------------------------------------------------------------------
      1         14           0        0.000000    0.000000    0.000000
      2          8           0        1.708300    0.000000    0.000000
      3          8           0       -1.709200   -0.012300    0.008300
      4          8           0        0.028200   -0.353200   -1.671700
      5          8           0       -0.009400    0.360900    1.669500
      6          8           0        0.015500   -1.677100    0.326400
      7          8           0       -0.027300    1.672700   -0.347600
      8          6           0        1.244100    2.137100   -0.781600
      9          1           0        1.336100    1.975500   -1.862800
     10          1           0        1.341100    3.208300   -0.583400
     11          6           0        2.236500    1.320600    0.000000
     12          1           0        3.229100    1.332400   -0.460200
     13          1           0        2.329700    1.670900    1.035500
     14          6           0       -2.234900    0.043500   -1.311200
     15          1           0       -3.236700   -0.394500   -1.334600
     16          1           0       -2.308100    1.091500   -1.627400
     17          6           0       -1.255800   -0.734000   -2.149900
     18          1           0       -1.348700   -0.495200   -3.214000
     19          1           0       -1.378200   -1.816700   -2.025100
     20          6           0        0.289400   -1.941900    1.696700
     21          1           0        1.375200   -1.997500    1.842200
     22          1           0       -0.148200   -2.900600    1.991700
     23          6           0       -0.321500   -0.788600    2.447200
     24          1           0       -1.411400   -0.883700    2.530600
     25          1           0        0.093800   -0.685800    3.454000
 ---------------------------------------------------------------------
                    Distance matrix (angstroms):
                    1          2          3          4          5
     1  Si   0.000000
     2  O    1.708300   0.000000
     3  O    1.709264   3.417532   0.000000
     4  O    1.708838   2.396261   2.440732   0.000000
     5  O    1.708089   2.422390   2.405864   3.416866   0.000000
     6  O    1.708637   2.405156   2.418127   2.396931   2.440898
     7  O    1.708653   2.435376   2.407214   2.420866   2.406207
     8  C    2.593430   2.322408   3.737090   2.910719   3.276284
     9  H    3.026184   2.740649   4.089770   2.677679   4.110285
    10  H    3.525917   3.281521   4.475120   3.948719   3.873899
    11  C    2.597290   1.422315   4.164762   3.236167   2.958432
    12  H    3.523373   2.073622   5.139506   3.815068   3.995912
    13  H    3.048224   2.061627   4.494554   4.089354   2.754895
    14  C    2.591508   4.155715   1.421462   2.325716   3.733385
    15  H    3.523211   5.137102   2.069472   3.282516   4.473333
    16  H    3.027727   4.468923   2.062176   2.747256   4.085015
    17  C    2.595739   3.734530   2.320399   1.422090   4.164149
    18  H    3.520513   4.463213   3.278166   2.072367   5.135680
    19  H    3.049732   4.114354   2.738638   2.060263   4.501736
    20  C    2.594902   2.943305   3.250916   3.733405   2.322264
    21  H    3.045469   2.737638   4.100943   4.106778   2.740254
    22  H    3.521692   3.978309   3.835736   4.465519   3.280314
    23  C    2.591146   3.275785   2.911458   4.156585   1.422524
    24  H    3.029342   4.113076   2.685148   4.473612   2.063038
    25  H    3.522675   3.873893   3.946804   5.136899   2.071394
                    6          7          8          9         10
     6  O    0.000000
     7  O    3.417202   0.000000
     8  C    4.157553   1.421436   0.000000
     9  H    4.458483   2.060674   1.097074   0.000000
    10  H    5.143159   2.070311   1.093692   1.776706   0.000000
    11  C    3.745075   2.317238   1.504137   2.170170   2.169218
    12  H    4.472477   3.276068   2.165887   2.442194   2.664343
    13  H    4.131277   2.732841   2.167423   3.078988   2.441673
    14  C    3.272079   2.907974   4.094762   4.097429   4.830469
    15  H    3.870502   3.943061   5.176135   5.177489   5.873732
    16  H    4.108722   2.679129   3.798260   3.757268   4.345968
    17  C    2.938997   3.248031   4.045363   3.760553   4.973886
    18  H    3.973960   3.829117   4.423594   3.890791   5.279298
    19  H    2.737050   4.100591   4.904619   4.666320   5.892683
    20  C    1.422274   4.164708   4.867408   5.395521   5.729702
    21  H    2.061332   4.498066   4.898615   5.432613   5.743261
    22  H    2.072914   5.138289   5.916765   6.390357   6.794690
    23  C    2.323961   3.735701   4.629900   5.381820   5.284315
    24  H    2.742996   4.090837   5.210334   5.918255   5.832471
    25  H    3.281873   4.475416   5.218454   6.074059   5.746335
                   11         12         13         14         15
    11  C    0.000000
    12  H    1.094156   0.000000
    13  H    1.097113   1.777814   0.000000
    14  C    4.831526   5.678095   5.384330   0.000000
    15  H    5.888858   6.749321   6.392813   1.093615   0.000000
    16  H    4.832629   5.664007   5.379213   1.097107   1.776577
    17  C    4.586896   5.219140   5.365270   1.505510   2.168857
    18  H    5.145929   5.646219   6.023360   2.167071   2.665864
    19  H    5.197089   5.795943   5.939625   2.168855   2.439972
    20  C    4.160997   4.900520   4.201468   4.400155   4.900674
    21  H    3.891700   4.452665   3.875435   5.209840   5.825057
    22  H    5.241392   5.944431   5.287052   4.891952   5.184944
    23  C    4.120786   5.055529   3.882126   4.298728   4.791212
    24  H    4.956818   5.948968   4.770444   4.036989   4.302419
    25  H    4.532871   5.405941   4.049991   5.353677   5.840186
                   16         17         18         19         20
    16  H    0.000000
    17  C    2.170897   0.000000
    18  H    2.440362   1.094516   0.000000
    19  H    3.079043   1.096721   1.777840   0.000000
    20  C    5.195976   4.317754   5.375062   4.080240   0.000000
    21  H    5.928469   4.945246   5.936472   4.750780   1.096915
    22  H    5.805163   4.803518   5.858879   4.338481   1.094360
    23  C    4.907517   4.691399   5.761112   4.709041   1.505507
    24  H    4.689824   4.685478   5.758063   4.650376   2.169769
    25  H    5.894790   5.764325   6.824907   5.785003   2.168905
                   21         22         23         24         25
    21  H    0.000000
    22  H    1.777270   0.000000
    23  C    2.169390   2.167500   0.000000
    24  H    3.078893   2.440076   1.097215   0.000000
    25  H    2.441402   2.665000   1.093932   1.776924   0.000000
 Stoichiometry    C6H12O6Si(2-)
 Framework group  C1[X(C6H12O6Si)]
 Deg. of freedom    69
 Full point group                 C1      NOp   1
 Largest Abelian subgroup         C1      NOp   1
 Largest concise Abelian subgroup C1      NOp   1
                         Standard orientation:                         
 ---------------------------------------------------------------------
 Center     Atomic      Atomic             Coordinates (Angstroms)
 Number     Number       Type             X           Y           Z
 ---------------------------------------------------------------------
      1         14           0       -0.009345    0.001918   -0.000784
      2          8           0       -0.361472    1.361487    0.971774
      3          8           0        0.330421   -1.364862   -0.969317
      4          8           0        1.307663   -0.356936    1.027244
      5          8           0       -1.325013    0.380105   -1.022330
      6          8           0       -1.013688   -0.953397    0.998271
      7          8           0        1.014240    0.943053   -0.993776
      8          6           0        1.332188    2.187813   -0.385531
      9          1           0        2.197217    2.054313    0.275887
     10          1           0        1.593286    2.924548   -1.150522
     11          6           0        0.091504    2.570031    0.374102
     12          1           0        0.297448    3.320109    1.143614
     13          1           0       -0.691146    2.958886   -0.289153
     14          6           0        1.625257   -1.884520   -0.697452
     15          1           0        1.666027   -2.945610   -0.959024
     16          1           0        2.364853   -1.349550   -1.306098
     17          6           0        1.831705   -1.654866    0.776047
     18          1           0        2.890130   -1.694807    1.051919
     19          1           0        1.286324   -2.385736    1.385296
     20          6           0       -2.390305   -0.753693    0.701782
     21          1           0       -2.765987    0.092109    1.290600
     22          1           0       -2.967937   -1.644053    0.968660
     23          6           0       -2.435043   -0.475019   -0.777031
     24          1           0       -2.324337   -1.390680   -1.371330
     25          1           0       -3.364096    0.019540   -1.075291
 ---------------------------------------------------------------------
 Rotational constants (GHZ):           0.9903580           0.9634926           0.6683615
 Standard basis: def2TZVPP (5D, 7F)
 There are   660 symmetry adapted cartesian basis functions of A   symmetry.
 There are   582 symmetry adapted basis functions of A   symmetry.
   582 basis functions,   885 primitive gaussians,   660 cartesian basis functions
    56 alpha electrons       56 beta electrons
       nuclear repulsion energy      1160.1754192290 Hartrees.
 NAtoms=   25 NActive=   25 NUniq=   25 SFac= 1.00D+00 NAtFMM=   60 NAOKFM=F Big=F
 Integral buffers will be    131072 words long.
 Raffenetti 2 integral format.
 Two-electron integral symmetry is turned on.
 Nuclear repulsion after empirical dispersion term =     1160.1592453569 Hartrees.
 One-electron integrals computed using PRISM.
   1 Symmetry operations used in ECPInt.
 ECPInt:  NShTT=   23871 NPrTT=   66401 LenC2=   22689 LenP2D=   48638.
 LDataN:  DoStor=T MaxTD1= 6 Len=  172
 NBasis=   582 RedAO= T EigKep=  2.19D-04  NBF=   582
 NBsUse=   582 1.00D-06 EigRej= -1.00D+00 NBFU=   582
 ExpMin= 7.01D-02 ExpMax= 4.48D+04 ExpMxC= 1.53D+03 IAcc=3 IRadAn=         5 AccDes= 0.00D+00
 Harris functional with IExCor= 4639 and IRadAn=       5 diagonalized for initial guess.
 HarFok:  IExCor= 4639 AccDes= 0.00D+00 IRadAn=         5 IDoV= 1 UseB2=F ITyADJ=14
 ICtDFT=  3500011 ScaDFX=  1.000000  1.000000  1.000000  1.000000
 FoFCou: FMM=F IPFlag=           0 FMFlag=      100000 FMFlg1=           0
         NFxFlg=           0 DoJE=T BraDBF=F KetDBF=T FulRan=T
         wScrn=  0.000000 ICntrl=       500 IOpCl=  0 I1Cent=   200000004 NGrid=           0
         NMat0=    1 NMatS0=      1 NMatT0=    0 NMatD0=    1 NMtDS0=    0 NMtDT0=    0
 Petite list used in FoFCou.
 Requested convergence on RMS density matrix=1.00D-08 within 128 cycles.
 Requested convergence on MAX density matrix=1.00D-06.
 Requested convergence on             energy=1.00D-06.
 No special actions if energy rises.
 Integral accuracy reduced to 1.0D-05 until final iterations.
 Initial convergence to 1.0D-05 achieved.  Increase integral accuracy.
 SCF Done:  E(RwB97XD) =  -976.831295059     A.U. after   15 cycles
            NFock= 15  Conv=0.52D-08     -V/T= 2.0028

 **********************************************************************

            Population analysis using the SCF Density.

 **********************************************************************

 Orbital symmetries:
       Occupied  (A) (A) (A) (A) (A) (A) (A) (A) (A) (A) (A) (A)
                 (A) (A) (A) (A) (A) (A) (A) (A) (A) (A) (A) (A)
                 (A) (A) (A) (A) (A) (A) (A) (A) (A) (A) (A) (A)
                 (A) (A) (A) (A) (A) (A) (A) (A) (A) (A) (A) (A)
                 (A) (A) (A) (A) (A) (A) (A) (A)
       Virtual   (A) (A) (A) (A) (A) (A) (A) (A) (A) (A) (A) (A)
                 (A) (A) (A) (A) (A) (A) (A) (A) (A) (A) (A) (A)
                 (A) (A) (A) (A) (A) (A) (A) (A) (A) (A) (A) (A)
                 (A) (A) (A) (A) (A) (A) (A) (A) (A) (A) (A) (A)
                 (A) (A) (A) (A) (A) (A) (A) (A) (A) (A) (A) (A)
                 (A) (A) (A) (A) (A) (A) (A) (A) (A) (A) (A) (A)
                 (A) (A) (A) (A) (A) (A) (A) (A) (A) (A) (A) (A)
                 (A) (A) (A) (A) (A) (A) (A) (A) (A) (A) (A) (A)
                 (A) (A) (A) (A) (A) (A) (A) (A) (A) (A) (A) (A)
                 (A) (A) (A) (A) (A) (A) (A) (A) (A) (A) (A) (A)
                 (A) (A) (A) (A) (A) (A) (A) (A) (A) (A) (A) (A)
                 (A) (A) (A) (A) (A) (A) (A) (A) (A) (A) (A) (A)
                 (A) (A) (A) (A) (A) (A) (A) (A) (A) (A) (A) (A)
                 (A) (A) (A) (A) (A) (A) (A) (A) (A) (A) (A) (A)
                 (A) (A) (A) (A) (A) (A) (A) (A) (A) (A) (A) (A)
                 (A) (A) (A) (A) (A) (A) (A) (A) (A) (A) (A) (A)
                 (A) (A) (A) (A) (A) (A) (A) (A) (A) (A) (A) (A)
                 (A) (A) (A) (A) (A) (A) (A) (A) (A) (A) (A) (A)
                 (A) (A) (A) (A) (A) (A) (A) (A) (A) (A) (A) (A)
                 (A) (A) (A) (A) (A) (A) (A) (A) (A) (A) (A) (A)
                 (A) (A) (A) (A) (A) (A) (A) (A) (A) (A) (A) (A)
                 (A) (A) (A) (A) (A) (A) (A) (A) (A) (A) (A) (A)
                 (A) (A) (A) (A) (A) (A) (A) (A) (A) (A) (A) (A)
                 (A) (A) (A) (A) (A) (A) (A) (A) (A) (A) (A) (A)
                 (A) (A) (A) (A) (A) (A) (A) (A) (A) (A) (A) (A)
                 (A) (A) (A) (A) (A) (A) (A) (A) (A) (A) (A) (A)
                 (A) (A) (A) (A) (A) (A) (A) (A) (A) (A) (A) (A)
                 (A) (A) (A) (A) (A) (A) (A) (A) (A) (A) (A) (A)
                 (A) (A) (A) (A) (A) (A) (A) (A) (A) (A) (A) (A)
                 (A) (A) (A) (A) (A) (A) (A) (A) (A) (A) (A) (A)
                 (A) (A) (A) (A) (A) (A) (A) (A) (A) (A) (A) (A)
                 (A) (A) (A) (A) (A) (A) (A) (A) (A) (A) (A) (A)
                 (A) (A) (A) (A) (A) (A) (A) (A) (A) (A) (A) (A)
                 (A) (A) (A) (A) (A) (A) (A) (A) (A) (A) (A) (A)
                 (A) (A) (A) (A) (A) (A) (A) (A) (A) (A) (A) (A)
                 (A) (A) (A) (A) (A) (A) (A) (A) (A) (A) (A) (A)
                 (A) (A) (A) (A) (A) (A) (A) (A) (A) (A) (A) (A)
                 (A) (A) (A) (A) (A) (A) (A) (A) (A) (A) (A) (A)
                 (A) (A) (A) (A) (A) (A) (A) (A) (A) (A) (A) (A)
                 (A) (A) (A) (A) (A) (A) (A) (A) (A) (A) (A) (A)
                 (A) (A) (A) (A) (A) (A) (A) (A) (A) (A) (A) (A)
                 (A) (A) (A) (A) (A) (A) (A) (A) (A) (A) (A) (A)
                 (A) (A) (A) (A) (A) (A) (A) (A) (A) (A) (A) (A)
                 (A) (A) (A) (A) (A) (A) (A) (A) (A) (A)
 The electronic state is 1-A.
 Alpha  occ. eigenvalues --  -65.89887 -18.85925 -18.85902 -18.85862 -18.85860
 Alpha  occ. eigenvalues --  -18.85842 -18.85809 -10.01257 -10.01236 -10.01229
 Alpha  occ. eigenvalues --  -10.01211 -10.01210 -10.01199  -5.01326  -3.35871
 Alpha  occ. eigenvalues --   -3.35866  -3.35846  -0.80312  -0.75798  -0.75757
 Alpha  occ. eigenvalues --   -0.71763  -0.70191  -0.70066  -0.52033  -0.49440
 Alpha  occ. eigenvalues --   -0.49387  -0.38826  -0.37989  -0.37349  -0.28338
 Alpha  occ. eigenvalues --   -0.27158  -0.25926  -0.25768  -0.24360  -0.24261
 Alpha  occ. eigenvalues --   -0.23669  -0.19187  -0.18987  -0.17808  -0.17584
 Alpha  occ. eigenvalues --   -0.16858  -0.16595  -0.13138  -0.12843  -0.07278
 Alpha  occ. eigenvalues --   -0.05211  -0.05152  -0.04386  -0.03644  -0.03186
 Alpha  occ. eigenvalues --   -0.02432  -0.02324  -0.01530   0.00956   0.02708
 Alpha  occ. eigenvalues --    0.03086
 Alpha virt. eigenvalues --    0.37850   0.38482   0.38744   0.41599   0.41692
 Alpha virt. eigenvalues --    0.41883   0.42350   0.42583   0.43715   0.44040
 Alpha virt. eigenvalues --    0.46667   0.46969   0.48311   0.48689   0.48780
 Alpha virt. eigenvalues --    0.51639   0.52833   0.53134   0.53755   0.54571
 Alpha virt. eigenvalues --    0.54777   0.56138   0.56257   0.56496   0.59528
 Alpha virt. eigenvalues --    0.62377   0.64362   0.65311   0.66571   0.66772
 Alpha virt. eigenvalues --    0.67720   0.69450   0.70124   0.71067   0.72390
 Alpha virt. eigenvalues --    0.73047   0.73455   0.73774   0.74140   0.74526
 Alpha virt. eigenvalues --    0.75099   0.75698   0.75926   0.77248   0.78036
 Alpha virt. eigenvalues --    0.78197   0.78562   0.79435   0.79605   0.79969
 Alpha virt. eigenvalues --    0.80086   0.80631   0.81144   0.81302   0.81435
 Alpha virt. eigenvalues --    0.83907   0.84104   0.87141   0.87454   0.88242
 Alpha virt. eigenvalues --    0.88665   0.89758   0.90910   0.93115   0.93958
 Alpha virt. eigenvalues --    0.94805   0.95076   0.96010   0.98094   0.99312
 Alpha virt. eigenvalues --    0.99468   1.00597   1.01852   1.03697   1.06062
 Alpha virt. eigenvalues --    1.06659   1.08021   1.10131   1.11467   1.12135
 Alpha virt. eigenvalues --    1.12609   1.12993   1.14103   1.14984   1.15458
 Alpha virt. eigenvalues --    1.15857   1.16403   1.17949   1.19634   1.20549
 Alpha virt. eigenvalues --    1.21160   1.22225   1.23352   1.24508   1.25335
 Alpha virt. eigenvalues --    1.26949   1.27126   1.28166   1.28359   1.29594
 Alpha virt. eigenvalues --    1.31430   1.32864   1.34026   1.35141   1.35260
 Alpha virt. eigenvalues --    1.37301   1.39687   1.39852   1.40143   1.41026
 Alpha virt. eigenvalues --    1.41468   1.42331   1.43014   1.43588   1.43816
 Alpha virt. eigenvalues --    1.44141   1.46168   1.47351   1.48504   1.49032
 Alpha virt. eigenvalues --    1.50155   1.53148   1.53445   1.54123   1.54845
 Alpha virt. eigenvalues --    1.55399   1.55709   1.56470   1.57871   1.58246
 Alpha virt. eigenvalues --    1.59939   1.60312   1.61491   1.61900   1.62533
 Alpha virt. eigenvalues --    1.62919   1.65854   1.67243   1.68409   1.68877
 Alpha virt. eigenvalues --    1.70605   1.71762   1.72468   1.73211   1.73765
 Alpha virt. eigenvalues --    1.74181   1.74973   1.76994   1.77249   1.78009
 Alpha virt. eigenvalues --    1.78251   1.82058   1.82989   1.83703   1.84727
 Alpha virt. eigenvalues --    1.85422   1.85581   1.86816   1.87592   1.87802
 Alpha virt. eigenvalues --    1.90154   1.92771   1.93163   1.94903   1.95211
 Alpha virt. eigenvalues --    1.96105   1.97343   1.97884   1.99895   2.01575
 Alpha virt. eigenvalues --    2.02223   2.04149   2.06969   2.07241   2.07541
 Alpha virt. eigenvalues --    2.09603   2.11511   2.12396   2.19405   2.21864
 Alpha virt. eigenvalues --    2.24185   2.25128   2.27384   2.30459   2.32266
 Alpha virt. eigenvalues --    2.33267   2.34077   2.38718   2.41108   2.41555
 Alpha virt. eigenvalues --    2.42670   2.43850   2.44974   2.47216   2.47461
 Alpha virt. eigenvalues --    2.47899   2.50115   2.51165   2.51679   2.54282
 Alpha virt. eigenvalues --    2.55674   2.57890   2.59895   2.60126   2.62334
 Alpha virt. eigenvalues --    2.63305   2.64985   2.65106   2.70120   2.70772
 Alpha virt. eigenvalues --    2.72140   2.73505   2.75272   2.77672   2.79803
 Alpha virt. eigenvalues --    2.81585   2.84225   2.85107   2.87135   2.88825
 Alpha virt. eigenvalues --    2.90706   2.92268   2.93873   2.94760   2.95039
 Alpha virt. eigenvalues --    2.97769   2.98043   2.98426   2.99638   3.01705
 Alpha virt. eigenvalues --    3.02133   3.03405   3.03823   3.04265   3.05145
 Alpha virt. eigenvalues --    3.06252   3.07420   3.07725   3.14495   3.15940
 Alpha virt. eigenvalues --    3.16984   3.17258   3.21664   3.22537   3.23271
 Alpha virt. eigenvalues --    3.23524   3.25359   3.25917   3.26341   3.28368
 Alpha virt. eigenvalues --    3.30070   3.30693   3.32233   3.33682   3.35295
 Alpha virt. eigenvalues --    3.37032   3.37717   3.38228   3.39045   3.40850
 Alpha virt. eigenvalues --    3.41842   3.42977   3.44286   3.45222   3.45840
 Alpha virt. eigenvalues --    3.46145   3.47942   3.48115   3.49821   3.50457
 Alpha virt. eigenvalues --    3.51183   3.51618   3.53605   3.54169   3.54706
 Alpha virt. eigenvalues --    3.56169   3.56827   3.58266   3.59753   3.60947
 Alpha virt. eigenvalues --    3.61446   3.62445   3.63925   3.64426   3.66853
 Alpha virt. eigenvalues --    3.67502   3.67714   3.69045   3.69962   3.70486
 Alpha virt. eigenvalues --    3.72857   3.73935   3.75596   3.76406   3.77545
 Alpha virt. eigenvalues --    3.80314   3.80862   3.81002   3.84372   3.87770
 Alpha virt. eigenvalues --    3.88725   3.89174   3.91763   3.92504   3.93563
 Alpha virt. eigenvalues --    3.93770   3.94214   3.97212   3.98877   4.00041
 Alpha virt. eigenvalues --    4.00745   4.01344   4.02837   4.03076   4.04096
 Alpha virt. eigenvalues --    4.06101   4.07313   4.07850   4.07920   4.09624
 Alpha virt. eigenvalues --    4.09807   4.11422   4.13517   4.15189   4.17377
 Alpha virt. eigenvalues --    4.18270   4.20198   4.20546   4.21053   4.21570
 Alpha virt. eigenvalues --    4.22104   4.23200   4.23706   4.24917   4.26230
 Alpha virt. eigenvalues --    4.27931   4.28584   4.31814   4.33189   4.34821
 Alpha virt. eigenvalues --    4.35083   4.35998   4.36353   4.40296   4.42679
 Alpha virt. eigenvalues --    4.43304   4.45721   4.46145   4.46758   4.49805
 Alpha virt. eigenvalues --    4.50525   4.50565   4.51873   4.52970   4.53445
 Alpha virt. eigenvalues --    4.56454   4.57598   4.58038   4.59195   4.61068
 Alpha virt. eigenvalues --    4.61486   4.63026   4.63411   4.64879   4.66414
 Alpha virt. eigenvalues --    4.66783   4.68981   4.76229   4.77819   4.78536
 Alpha virt. eigenvalues --    4.78793   4.79378   4.82084   4.85434   4.87073
 Alpha virt. eigenvalues --    4.87810   4.93588   4.97313   4.98410   4.99368
 Alpha virt. eigenvalues --    5.00002   5.00832   5.01795   5.03702   5.04472
 Alpha virt. eigenvalues --    5.04844   5.08826   5.09110   5.10464   5.12518
 Alpha virt. eigenvalues --    5.13017   5.13933   5.14624   5.17704   5.17896
 Alpha virt. eigenvalues --    5.19904   5.20604   5.22615   5.23454   5.24103
 Alpha virt. eigenvalues --    5.27800   5.28540   5.29634   5.31461   5.32769
 Alpha virt. eigenvalues --    5.33147   5.35868   5.37952   5.39287   5.42994
 Alpha virt. eigenvalues --    5.43278   5.44449   5.48371   5.48914   5.53704
 Alpha virt. eigenvalues --    5.55406   5.56679   5.57603   5.59796   5.60449
 Alpha virt. eigenvalues --    5.61854   5.63910   5.64931   5.68775   5.70124
 Alpha virt. eigenvalues --    5.71347   5.71993   5.72502   5.73085   5.74333
 Alpha virt. eigenvalues --    5.78462   5.80788   5.84960   5.85866   5.86538
 Alpha virt. eigenvalues --    5.87253   5.87997   5.89612   5.90716   5.92250
 Alpha virt. eigenvalues --    5.92657   5.95059   5.95417   5.95804   5.96043
 Alpha virt. eigenvalues --    5.98600   5.99804   6.00755   6.01276   6.03067
 Alpha virt. eigenvalues --    6.03754   6.05959   6.07443   6.07992   6.09444
 Alpha virt. eigenvalues --    6.11408   6.15302   6.18892   6.19156   6.22224
 Alpha virt. eigenvalues --    6.31982   6.34984   6.35467   6.40253   6.42580
 Alpha virt. eigenvalues --    6.43442   6.48683   6.51568   6.52644   6.54003
 Alpha virt. eigenvalues --    6.54298   6.56791   6.59068   6.59456   6.62733
 Alpha virt. eigenvalues --    6.66881   6.69768   6.70326   6.86068   6.88807
 Alpha virt. eigenvalues --    7.07928   7.08470   7.11058   7.13514   7.19585
 Alpha virt. eigenvalues --    7.20927   7.22597   7.26515   7.26697   7.28014
 Alpha virt. eigenvalues --    7.30150   7.33941   7.40531   7.41613   7.44562
 Alpha virt. eigenvalues --    7.48839   7.51629   7.53740   7.54404   7.59820
 Alpha virt. eigenvalues --    7.62440   7.67321   7.70184   7.73926   7.81015
 Alpha virt. eigenvalues --    7.81517   7.89973   7.90931   7.93667   7.96561
 Alpha virt. eigenvalues --    8.09040   8.15767   8.19649  12.69282  23.69653
 Alpha virt. eigenvalues --   23.73099  23.75394  23.80858  23.81134  23.83107
 Alpha virt. eigenvalues --   44.61963  44.64941  44.74234  44.89384  44.90183
 Alpha virt. eigenvalues --   44.94826
          Condensed to atoms (all electrons):
               1          2          3          4          5          6
     1  Si  11.578442   0.347356   0.350856   0.349598   0.357995   0.351095
     2  O    0.347356   8.197148   0.012414  -0.077330  -0.056535  -0.080053
     3  O    0.350856   0.012414   8.205518  -0.071915  -0.079363  -0.055518
     4  O    0.349598  -0.077330  -0.071915   8.197351   0.011681  -0.079044
     5  O    0.357995  -0.056535  -0.079363   0.011681   8.193736  -0.073532
     6  O    0.351095  -0.080053  -0.055518  -0.079044  -0.073532   8.200270
     7  O    0.341490  -0.068059  -0.081651  -0.056692  -0.075102   0.012457
     8  C   -0.079669  -0.127333  -0.000421  -0.000082  -0.004511  -0.002816
     9  H    0.014769   0.012478   0.001192   0.021808  -0.001654   0.000306
    10  H   -0.011649   0.007561  -0.000501  -0.000472   0.000983   0.000144
    11  C   -0.074076   0.410805  -0.002925  -0.005841  -0.000980  -0.000526
    12  H   -0.013170  -0.038945   0.000158   0.001174  -0.000713  -0.000489
    13  H    0.013605  -0.077489   0.000211  -0.001745   0.019394   0.001021
    14  C   -0.036313  -0.002873   0.391663  -0.117103   0.003419  -0.004800
    15  H   -0.004957   0.000090  -0.038824   0.009064  -0.000585  -0.000031
    16  H   -0.029607   0.000001  -0.066236   0.013922   0.000577  -0.000944
    17  C   -0.043929   0.004236  -0.117358   0.386263  -0.005078   0.000853
    18  H   -0.009982  -0.000232   0.008497  -0.040077   0.000099  -0.000962
    19  H   -0.019650   0.000504   0.015678  -0.064875   0.000017   0.016704
    20  C   -0.044331   0.000192  -0.005929   0.004143  -0.118695   0.393160
    21  H   -0.025927   0.020879  -0.000887   0.000486   0.014436  -0.067342
    22  H   -0.004914  -0.000747   0.000033  -0.000568   0.009165  -0.038843
    23  C   -0.041498  -0.006394  -0.000551  -0.005262   0.383625  -0.114958
    24  H   -0.017786  -0.001030   0.018041   0.000037  -0.064334   0.015279
    25  H   -0.011509  -0.000651  -0.000897   0.000092  -0.039427   0.008487
               7          8          9         10         11         12
     1  Si   0.341490  -0.079669   0.014769  -0.011649  -0.074076  -0.013170
     2  O   -0.068059  -0.127333   0.012478   0.007561   0.410805  -0.038945
     3  O   -0.081651  -0.000421   0.001192  -0.000501  -0.002925   0.000158
     4  O   -0.056692  -0.000082   0.021808  -0.000472  -0.005841   0.001174
     5  O   -0.075102  -0.004511  -0.001654   0.000983  -0.000980  -0.000713
     6  O    0.012457  -0.002816   0.000306   0.000144  -0.000526  -0.000489
     7  O    8.206586   0.404499  -0.076560  -0.038825  -0.126955   0.007542
     8  C    0.404499   4.999597   0.357092   0.276271   0.150077   0.014302
     9  H   -0.076560   0.357092   0.905339  -0.118861  -0.087097  -0.019871
    10  H   -0.038825   0.276271  -0.118861   0.915436   0.014308   0.017428
    11  C   -0.126955   0.150077  -0.087097   0.014308   4.987074   0.275357
    12  H    0.007542   0.014302  -0.019871   0.017428   0.275357   0.921675
    13  H    0.013844  -0.086974   0.025309  -0.021009   0.357003  -0.121447
    14  C   -0.000144   0.003666  -0.001592  -0.000031  -0.003601   0.000175
    15  H   -0.000533   0.000225  -0.000083  -0.000029  -0.000013   0.000001
    16  H    0.023356   0.002724   0.000647   0.000034   0.000674  -0.000048
    17  C   -0.005886   0.000483  -0.000643   0.000212  -0.000577   0.000375
    18  H   -0.000834   0.002983  -0.000987  -0.000121  -0.000489   0.000009
    19  H   -0.000964  -0.000179   0.000810   0.000005  -0.000190   0.000006
    20  C   -0.002466  -0.003509  -0.000074   0.000149   0.003370  -0.000001
    21  H   -0.000031   0.000516  -0.000014  -0.000038   0.002362  -0.000009
    22  H    0.000102  -0.000008  -0.000002   0.000001   0.000160  -0.000025
    23  C    0.004213  -0.001006  -0.000162   0.000350   0.000431   0.000137
    24  H    0.000631  -0.000148  -0.000000   0.000006  -0.000266  -0.000001
    25  H   -0.000240  -0.000431  -0.000004   0.000006   0.002461  -0.000087
              13         14         15         16         17         18
     1  Si   0.013605  -0.036313  -0.004957  -0.029607  -0.043929  -0.009982
     2  O   -0.077489  -0.002873   0.000090   0.000001   0.004236  -0.000232
     3  O    0.000211   0.391663  -0.038824  -0.066236  -0.117358   0.008497
     4  O   -0.001745  -0.117103   0.009064   0.013922   0.386263  -0.040077
     5  O    0.019394   0.003419  -0.000585   0.000577  -0.005078   0.000099
     6  O    0.001021  -0.004800  -0.000031  -0.000944   0.000853  -0.000962
     7  O    0.013844  -0.000144  -0.000533   0.023356  -0.005886  -0.000834
     8  C   -0.086974   0.003666   0.000225   0.002724   0.000483   0.002983
     9  H    0.025309  -0.001592  -0.000083   0.000647  -0.000643  -0.000987
    10  H   -0.021009  -0.000031  -0.000029   0.000034   0.000212  -0.000121
    11  C    0.357003  -0.003601  -0.000013   0.000674  -0.000577  -0.000489
    12  H   -0.121447   0.000175   0.000001  -0.000048   0.000375   0.000009
    13  H    0.912772  -0.000100  -0.000003  -0.000024  -0.000192  -0.000003
    14  C   -0.000100   4.929131   0.260315   0.378670   0.179285   0.014955
    15  H   -0.000003   0.260315   0.924854  -0.111453   0.012802   0.016215
    16  H   -0.000024   0.378670  -0.111453   0.894745  -0.082105  -0.019976
    17  C   -0.000192   0.179285   0.012802  -0.082105   4.933460   0.267100
    18  H   -0.000003   0.014955   0.016215  -0.019976   0.267100   0.925621
    19  H   -0.000003  -0.079355  -0.019565   0.025296   0.374480  -0.114544
    20  C   -0.001461  -0.000335   0.000202   0.000067  -0.000639   0.000113
    21  H    0.000632   0.000097  -0.000006  -0.000032  -0.000226   0.000014
    22  H   -0.000060   0.000281   0.000018  -0.000008   0.000455  -0.000041
    23  C    0.000201  -0.000905   0.000567  -0.000379  -0.002042  -0.000106
    24  H    0.000674   0.002013  -0.000281   0.000014   0.000653  -0.000012
    25  H   -0.000776   0.000100  -0.000044   0.000017  -0.000118  -0.000002
              19         20         21         22         23         24
     1  Si  -0.019650  -0.044331  -0.025927  -0.004914  -0.041498  -0.017786
     2  O    0.000504   0.000192   0.020879  -0.000747  -0.006394  -0.001030
     3  O    0.015678  -0.005929  -0.000887   0.000033  -0.000551   0.018041
     4  O   -0.064875   0.004143   0.000486  -0.000568  -0.005262   0.000037
     5  O    0.000017  -0.118695   0.014436   0.009165   0.383625  -0.064334
     6  O    0.016704   0.393160  -0.067342  -0.038843  -0.114958   0.015279
     7  O   -0.000964  -0.002466  -0.000031   0.000102   0.004213   0.000631
     8  C   -0.000179  -0.003509   0.000516  -0.000008  -0.001006  -0.000148
     9  H    0.000810  -0.000074  -0.000014  -0.000002  -0.000162  -0.000000
    10  H    0.000005   0.000149  -0.000038   0.000001   0.000350   0.000006
    11  C   -0.000190   0.003370   0.002362   0.000160   0.000431  -0.000266
    12  H    0.000006  -0.000001  -0.000009  -0.000025   0.000137  -0.000001
    13  H   -0.000003  -0.001461   0.000632  -0.000060   0.000201   0.000674
    14  C   -0.079355  -0.000335   0.000097   0.000281  -0.000905   0.002013
    15  H   -0.019565   0.000202  -0.000006   0.000018   0.000567  -0.000281
    16  H    0.025296   0.000067  -0.000032  -0.000008  -0.000379   0.000014
    17  C    0.374480  -0.000639  -0.000226   0.000455  -0.002042   0.000653
    18  H   -0.114544   0.000113   0.000014  -0.000041  -0.000106  -0.000012
    19  H    0.892412   0.001630   0.000041  -0.000298   0.000351   0.000100
    20  C    0.001630   4.933661   0.378239   0.257965   0.182913  -0.081454
    21  H    0.000041   0.378239   0.897706  -0.113925  -0.081676   0.025343
    22  H   -0.000298   0.257965  -0.113925   0.930085   0.013158  -0.019280
    23  C    0.000351   0.182913  -0.081676   0.013158   4.931662   0.371776
    24  H    0.000100  -0.081454   0.025343  -0.019280   0.371776   0.891626
    25  H   -0.000010   0.015057  -0.020567   0.016542   0.269761  -0.113362
              25
     1  Si  -0.011509
     2  O   -0.000651
     3  O   -0.000897
     4  O    0.000092
     5  O   -0.039427
     6  O    0.008487
     7  O   -0.000240
     8  C   -0.000431
     9  H   -0.000004
    10  H    0.000006
    11  C    0.002461
    12  H   -0.000087
    13  H   -0.000776
    14  C    0.000100
    15  H   -0.000044
    16  H    0.000017
    17  C   -0.000118
    18  H   -0.000002
    19  H   -0.000010
    20  C    0.015057
    21  H   -0.020567
    22  H    0.016542
    23  C    0.269761
    24  H   -0.113362
    25  H    0.921136
 Mulliken charges:
               1
     1  Si   0.763760
     2  O   -0.475990
     3  O   -0.481284
     4  O   -0.474613
     5  O   -0.474616
     6  O   -0.479917
     7  O   -0.479778
     8  C    0.094654
     9  H   -0.032146
    10  H   -0.041357
    11  C    0.099456
    12  H   -0.043534
    13  H   -0.033378
    14  C    0.083380
    15  H   -0.047948
    16  H   -0.029931
    17  C    0.098139
    18  H   -0.047237
    19  H   -0.028399
    20  C    0.088031
    21  H   -0.030068
    22  H   -0.049245
    23  C    0.095793
    24  H   -0.028239
    25  H   -0.045531
 Sum of Mulliken charges =  -2.00000
 Mulliken charges with hydrogens summed into heavy atoms:
               1
     1  Si   0.763760
     2  O   -0.475990
     3  O   -0.481284
     4  O   -0.474613
     5  O   -0.474616
     6  O   -0.479917
     7  O   -0.479778
     8  C    0.021151
    11  C    0.022544
    14  C    0.005501
    17  C    0.022503
    20  C    0.008718
    23  C    0.022022
 Electronic spatial extent (au):  <R**2>=           2072.7912
 Charge=             -2.0000 electrons
 Dipole moment (field-independent basis, Debye):
    X=              0.0855    Y=             -0.0305    Z=             -0.0409  Tot=              0.0996
 Quadrupole moment (field-independent basis, Debye-Ang):
   XX=           -109.4413   YY=           -109.4030   ZZ=           -108.9544
   XY=              0.0019   XZ=             -0.0683   YZ=              0.0125
 Traceless Quadrupole moment (field-independent basis, Debye-Ang):
   XX=             -0.1751   YY=             -0.1368   ZZ=              0.3119
   XY=              0.0019   XZ=             -0.0683   YZ=              0.0125
 Octapole moment (field-independent basis, Debye-Ang**2):
  XXX=              6.3613  YYY=             -6.6749  ZZZ=             -0.0827  XYY=             -6.6208
  XXY=              5.8404  XXZ=              0.1085  XZZ=              0.2573  YZZ=              0.7658
  YYZ=             -0.1838  XYZ=              0.2537
 Hexadecapole moment (field-independent basis, Debye-Ang**3):
 XXXX=          -1401.5793 YYYY=          -1350.7925 ZZZZ=           -509.6401 XXXY=             -4.8102
 XXXZ=             -7.4343 YYYX=              4.3901 YYYZ=            -10.6786 ZZZX=             -1.3333
 ZZZY=              0.8241 XXYY=           -461.7663 XXZZ=           -326.2405 YYZZ=           -311.7795
 XXYZ=              9.8844 YYXZ=              9.1820 ZZXY=              1.6324
 N-N= 1.160159245357D+03 E-N=-4.665991655275D+03  KE= 9.740565655097D+02
   1 Symmetry operations used in ECPInt.
 ECPInt:  NShTT=   23871 NPrTT=   66401 LenC2=   22689 LenP2D=   48638.
 LDataN:  DoStor=T MaxTD1= 7 Len=  274
 Calling FoFJK, ICntrl=      2127 FMM=F ISym2X=0 I1Cent= 0 IOpClX= 0 NMat=1 NMatS=1 NMatT=0.
 ***** Axes restored to original set *****
 -------------------------------------------------------------------
 Center     Atomic                   Forces (Hartrees/Bohr)
 Number     Number              X              Y              Z
 -------------------------------------------------------------------
      1       14           0.000800992   -0.000293528   -0.000065915
      2        8           0.062332416    0.031215527   -0.005755906
      3        8          -0.060988039    0.006398115   -0.032413219
      4        8          -0.030722319   -0.023040898   -0.059744363
      5        8          -0.012318826   -0.017025660    0.066583514
      6        8           0.011938752   -0.054181868    0.043583305
      7        8           0.029048889    0.060521320   -0.014034165
      8        6          -0.038089083   -0.006013084    0.012639790
      9        1           0.005545017   -0.002048048   -0.003936084
     10        1           0.001084188    0.007716662    0.000900448
     11        6          -0.007870650   -0.039589712   -0.001818903
     12        1           0.007326483    0.000160077   -0.002360076
     13        1          -0.000847758    0.006335311    0.003174869
     14        6           0.007738386   -0.003528700    0.039024444
     15        1          -0.007542246   -0.002722265   -0.000768169
     16        1           0.001057175    0.002865066   -0.006057084
     17        6           0.036724288    0.011941372    0.005973206
     18        1          -0.000841174    0.000735038   -0.007535267
     19        1          -0.005545105   -0.004048160    0.001308045
     20        6          -0.010211379    0.000163448   -0.038580377
     21        1           0.004175411    0.001892948    0.005311854
     22        1          -0.002329563   -0.006968919    0.002260210
     23        6           0.010995633    0.034376084   -0.015342393
     24        1          -0.003824766   -0.005296361    0.000235282
     25        1           0.002363277    0.000436234    0.007416954
 -------------------------------------------------------------------
 Cartesian Forces:  Max     0.066583514 RMS     0.022946084

 GradGradGradGradGradGradGradGradGradGradGradGradGradGradGradGradGradGrad
 Berny optimization.
 FormGI is forming the generalized inverse of G from B-inverse, IUseBI=4.
 Internal  Forces:  Max     0.049280697 RMS     0.011710988
 Search for a local minimum.
 Step number   1 out of a maximum of  150
 All quantities printed in internal units (Hartrees-Bohrs-Radians)
 Mixed Optimization -- RFO/linear search
 Second derivative matrix not updated -- first step.
 ITU=  0
     Eigenvalues ---    0.01194   0.01196   0.01212   0.02489   0.02492
     Eigenvalues ---    0.02494   0.04977   0.04999   0.05015   0.05105
     Eigenvalues ---    0.05107   0.05126   0.05913   0.05917   0.05923
     Eigenvalues ---    0.06332   0.06340   0.06347   0.08755   0.08762
     Eigenvalues ---    0.09186   0.09514   0.09923   0.10050   0.10389
     Eigenvalues ---    0.10514   0.10633   0.11094   0.11099   0.11107
     Eigenvalues ---    0.11174   0.11175   0.11183   0.12202   0.12662
     Eigenvalues ---    0.12748   0.17588   0.17991   0.18444   0.21608
     Eigenvalues ---    0.21707   0.21725   0.29224   0.29455   0.29625
     Eigenvalues ---    0.33370   0.33430   0.33447   0.33782   0.33829
     Eigenvalues ---    0.33847   0.33992   0.34003   0.34004   0.34008
     Eigenvalues ---    0.34026   0.34047   0.34296   0.34314   0.34337
     Eigenvalues ---    0.34362   0.34389   0.34398   0.40245   0.40303
     Eigenvalues ---    0.40321   0.41003   0.41070   0.41096
 RFO step:  Lambda=-5.78330402D-02 EMin= 1.19364169D-02
 Linear search not attempted -- first point.
 Maximum step size (   0.300) exceeded in Quadratic search.
    -- Step size scaled by   0.775
 Iteration  1 RMS(Cart)=  0.03899555 RMS(Int)=  0.00049258
 Iteration  2 RMS(Cart)=  0.00056523 RMS(Int)=  0.00019634
 Iteration  3 RMS(Cart)=  0.00000046 RMS(Int)=  0.00019634
 Variable       Old X    -DE/DX   Delta X   Delta X   Delta X     New X
                                 (Linear)    (Quad)   (Total)
    R1        3.22822   0.04824   0.00000   0.09854   0.09872   3.32693
    R2        3.23004   0.04745   0.00000   0.09762   0.09779   3.32783
    R3        3.22924   0.04928   0.00000   0.10092   0.10108   3.33032
    R4        3.22782   0.04805   0.00000   0.09850   0.09869   3.32651
    R5        3.22886   0.04804   0.00000   0.09851   0.09868   3.32754
    R6        3.22889   0.04769   0.00000   0.09768   0.09786   3.32675
    R7        2.68779  -0.02401   0.00000  -0.04242  -0.04252   2.64526
    R8        2.68617  -0.02327   0.00000  -0.04092  -0.04106   2.64512
    R9        2.68736  -0.02267   0.00000  -0.04005  -0.04019   2.64717
   R10        2.68818  -0.02291   0.00000  -0.04046  -0.04059   2.64759
   R11        2.68771  -0.02372   0.00000  -0.04183  -0.04197   2.64574
   R12        2.68613  -0.02305   0.00000  -0.04076  -0.04086   2.64527
   R13        2.07317   0.00465   0.00000   0.00905   0.00905   2.08222
   R14        2.06678   0.00782   0.00000   0.01509   0.01509   2.08186
   R15        2.84241   0.01371   0.00000   0.02036   0.02014   2.86255
   R16        2.06766   0.00764   0.00000   0.01477   0.01477   2.08242
   R17        2.07324   0.00495   0.00000   0.00964   0.00964   2.08288
   R18        2.06663   0.00802   0.00000   0.01547   0.01547   2.08210
   R19        2.07323   0.00441   0.00000   0.00860   0.00860   2.08183
   R20        2.84500   0.01460   0.00000   0.02127   0.02113   2.86613
   R21        2.06833   0.00756   0.00000   0.01462   0.01462   2.08296
   R22        2.07250   0.00476   0.00000   0.00927   0.00927   2.08177
   R23        2.07287   0.00474   0.00000   0.00923   0.00923   2.08210
   R24        2.06804   0.00765   0.00000   0.01479   0.01479   2.08283
   R25        2.84500   0.01457   0.00000   0.02114   0.02098   2.86597
   R26        2.07344   0.00428   0.00000   0.00834   0.00834   2.08177
   R27        2.06723   0.00776   0.00000   0.01499   0.01499   2.08223
    A1        1.55429   0.00599   0.00000   0.01168   0.01176   1.56606
    A2        1.57630   0.00308   0.00000   0.02109   0.02117   1.59747
    A3        1.56172   0.00446   0.00000   0.00477   0.00489   1.56661
    A4        1.58677  -0.01283   0.00000  -0.03464  -0.03438   1.55240
    A5        1.59056  -0.01418   0.00000  -0.03877  -0.03844   1.55212
    A6        1.56207   0.00500   0.00000   0.00562   0.00604   1.56811
    A7        1.57188   0.00412   0.00000   0.02597   0.02611   1.59798
    A8        1.56285   0.00411   0.00000   0.00345   0.00380   1.56665
    A9        1.55465   0.00580   0.00000   0.00938   0.00954   1.56419
   A10        1.57439   0.00319   0.00000   0.02215   0.02233   1.59672
   A11        1.59152  -0.01416   0.00000  -0.03879  -0.03849   1.55303
   A12        1.56270   0.00501   0.00000   0.00669   0.00703   1.56974
   A13        1.95128  -0.00066   0.00000   0.00709   0.00706   1.95834
   A14        1.94446   0.00042   0.00000   0.00928   0.00933   1.95379
   A15        1.94916  -0.00022   0.00000   0.00806   0.00811   1.95728
   A16        1.94424  -0.00017   0.00000   0.00814   0.00822   1.95246
   A17        1.94823   0.00036   0.00000   0.00928   0.00935   1.95759
   A18        1.94729  -0.00124   0.00000   0.00559   0.00556   1.95285
   A19        1.90476   0.00181   0.00000   0.01025   0.01036   1.91512
   A20        1.92196  -0.00454   0.00000  -0.00117  -0.00105   1.92091
   A21        1.82775   0.00930   0.00000   0.01755   0.01742   1.84516
   A22        1.89171   0.00189   0.00000   0.00156   0.00139   1.89310
   A23        1.95716  -0.00864   0.00000  -0.02833  -0.02833   1.92883
   A24        1.95950   0.00028   0.00000   0.00103   0.00092   1.96042
   A25        1.83278   0.00886   0.00000   0.01595   0.01575   1.84853
   A26        1.92507  -0.00474   0.00000  -0.00233  -0.00222   1.92285
   A27        1.90499   0.00191   0.00000   0.01021   0.01030   1.91529
   A28        1.95426   0.00112   0.00000   0.00417   0.00406   1.95832
   A29        1.95323  -0.00856   0.00000  -0.02733  -0.02726   1.92597
   A30        1.89280   0.00146   0.00000  -0.00001  -0.00012   1.89268
   A31        1.92082  -0.00430   0.00000  -0.00135  -0.00120   1.91962
   A32        1.90680   0.00222   0.00000   0.01227   0.01243   1.91923
   A33        1.83003   0.00826   0.00000   0.01389   0.01359   1.84362
   A34        1.89156   0.00164   0.00000   0.00104   0.00087   1.89244
   A35        1.95734  -0.00000   0.00000   0.00009  -0.00002   1.95732
   A36        1.95644  -0.00772   0.00000  -0.02506  -0.02495   1.93148
   A37        1.83545   0.00798   0.00000   0.01318   0.01292   1.84837
   A38        1.92318  -0.00446   0.00000  -0.00248  -0.00235   1.92083
   A39        1.90377   0.00243   0.00000   0.01317   0.01331   1.91708
   A40        1.95382   0.00034   0.00000   0.00130   0.00124   1.95507
   A41        1.95396  -0.00748   0.00000  -0.02385  -0.02379   1.93017
   A42        1.89288   0.00128   0.00000  -0.00052  -0.00066   1.89222
   A43        1.90484   0.00245   0.00000   0.01305   0.01319   1.91802
   A44        1.92390  -0.00450   0.00000  -0.00249  -0.00235   1.92155
   A45        1.83332   0.00795   0.00000   0.01284   0.01256   1.84588
   A46        1.89194   0.00143   0.00000   0.00031   0.00017   1.89211
   A47        1.95451  -0.00765   0.00000  -0.02446  -0.02438   1.93013
   A48        1.95461   0.00039   0.00000   0.00151   0.00144   1.95605
   A49        1.83119   0.00823   0.00000   0.01400   0.01372   1.84491
   A50        1.90660   0.00219   0.00000   0.01207   0.01222   1.91882
   A51        1.92190  -0.00443   0.00000  -0.00217  -0.00202   1.91988
   A52        1.95473  -0.00742   0.00000  -0.02373  -0.02364   1.93108
   A53        1.95707   0.00000   0.00000   0.00013   0.00004   1.95710
   A54        1.89157   0.00151   0.00000   0.00052   0.00037   1.89193
   A55        3.14486  -0.00819   0.00000  -0.02709  -0.02668   3.11818
   A56        3.13059   0.00907   0.00000   0.03277   0.03293   3.16352
   A57        3.14850  -0.00837   0.00000  -0.02988  -0.02949   3.11901
   A58        3.13355   0.00874   0.00000   0.03122   0.03121   3.16475
   A59        3.13692   0.00849   0.00000   0.02975   0.02914   3.16606
   A60        3.12892   0.00917   0.00000   0.03211   0.03210   3.16102
    D1        1.77902   0.00281   0.00000   0.02013   0.01995   1.79897
    D2       -1.35790  -0.00568   0.00000  -0.00962  -0.00919  -1.36709
    D3       -2.94937   0.00849   0.00000   0.02933   0.02937  -2.92001
    D4        0.20489  -0.00069   0.00000  -0.00278  -0.00273   0.20216
    D5       -0.25339   0.00047   0.00000   0.00186   0.00167  -0.25171
    D6        2.88362   0.00879   0.00000   0.03100   0.03122   2.91484
    D7       -1.80805  -0.00540   0.00000  -0.00801  -0.00734  -1.81539
    D8        1.32085   0.00385   0.00000   0.02438   0.02424   1.34509
    D9        2.93295   0.00831   0.00000   0.02963   0.02966   2.96262
   D10       -0.20059  -0.00043   0.00000  -0.00158  -0.00155  -0.20214
   D11        1.37096   0.00404   0.00000   0.02520   0.02501   1.39597
   D12       -1.76351  -0.00456   0.00000  -0.00534  -0.00479  -1.76830
   D13       -1.80646  -0.00440   0.00000  -0.00413  -0.00354  -1.81000
   D14        1.32707   0.00441   0.00000   0.02730   0.02710   1.35417
   D15       -0.24462   0.00005   0.00000   0.00087   0.00076  -0.24386
   D16        2.89000   0.00843   0.00000   0.03065   0.03083   2.92082
   D17        1.36579   0.00323   0.00000   0.02076   0.02063   1.38642
   D18       -1.77241  -0.00514   0.00000  -0.00690  -0.00634  -1.77875
   D19        2.92023   0.00910   0.00000   0.03229   0.03227   2.95250
   D20       -0.21032  -0.00007   0.00000  -0.00078  -0.00081  -0.21113
   D21        0.25265  -0.00062   0.00000  -0.00291  -0.00299   0.24966
   D22       -2.89223   0.00758   0.00000   0.02411   0.02431  -2.86792
   D23       -1.30170  -0.00661   0.00000  -0.01482  -0.01422  -1.31592
   D24        1.82882   0.00265   0.00000   0.01857   0.01833   1.84715
   D25       -0.56805   0.00503   0.00000   0.01298   0.01282  -0.55523
   D26       -2.67657   0.00099   0.00000  -0.00017  -0.00026  -2.67683
   D27        1.52876   0.00088   0.00000  -0.00504  -0.00514   1.52362
   D28        2.70799  -0.00091   0.00000   0.00095   0.00104   2.70903
   D29       -1.50030  -0.00013   0.00000   0.00889   0.00903  -1.49127
   D30        0.59967  -0.00345   0.00000  -0.00654  -0.00630   0.59338
   D31        0.56175  -0.00338   0.00000  -0.00535  -0.00519   0.55656
   D32        2.67031  -0.00066   0.00000   0.00265   0.00270   2.67302
   D33       -1.53679  -0.00028   0.00000   0.00858   0.00866  -1.52813
   D34        0.59463  -0.00331   0.00000  -0.00602  -0.00581   0.58882
   D35       -1.50389  -0.00031   0.00000   0.00789   0.00800  -1.49589
   D36        2.70387  -0.00083   0.00000   0.00118   0.00126   2.70513
   D37       -1.52893  -0.00019   0.00000   0.00928   0.00938  -1.51955
   D38        2.67825  -0.00074   0.00000   0.00240   0.00246   2.68070
   D39        0.56962  -0.00350   0.00000  -0.00564  -0.00545   0.56417
   D40        1.49610   0.00050   0.00000  -0.00641  -0.00646   1.48964
   D41       -2.71257   0.00119   0.00000   0.00105   0.00098  -2.71159
   D42       -0.60242   0.00457   0.00000   0.01191   0.01183  -0.59059
   D43        0.72159   0.00282   0.00000  -0.00305  -0.00344   0.71814
   D44        2.81076   0.00318   0.00000   0.00624   0.00601   2.81677
   D45       -1.34291  -0.00033   0.00000  -0.01062  -0.01074  -1.35365
   D46       -1.34165  -0.00048   0.00000  -0.01126  -0.01134  -1.35300
   D47        0.74752  -0.00012   0.00000  -0.00198  -0.00190   0.74562
   D48        2.87703  -0.00363   0.00000  -0.01883  -0.01864   2.85839
   D49        2.80671   0.00325   0.00000   0.00695   0.00672   2.81343
   D50       -1.38730   0.00361   0.00000   0.01624   0.01617  -1.37113
   D51        0.74221   0.00010   0.00000  -0.00062  -0.00057   0.74163
   D52       -0.71802  -0.00370   0.00000  -0.00289  -0.00269  -0.72070
   D53       -2.80632  -0.00343   0.00000  -0.00874  -0.00859  -2.81492
   D54        1.34702   0.00010   0.00000   0.00834   0.00834   1.35536
   D55       -2.80202  -0.00361   0.00000  -0.00987  -0.00969  -2.81171
   D56        1.39286  -0.00334   0.00000  -0.01573  -0.01560   1.37726
   D57       -0.73699   0.00019   0.00000   0.00135   0.00134  -0.73565
   D58        1.34866  -0.00006   0.00000   0.00715   0.00717   1.35583
   D59       -0.73964   0.00021   0.00000   0.00130   0.00126  -0.73838
   D60       -2.86948   0.00374   0.00000   0.01838   0.01819  -2.85129
   D61       -0.71973  -0.00377   0.00000  -0.00307  -0.00286  -0.72258
   D62        1.34654  -0.00005   0.00000   0.00746   0.00748   1.35402
   D63       -2.80560  -0.00352   0.00000  -0.00918  -0.00900  -2.81460
   D64        1.34559  -0.00004   0.00000   0.00752   0.00754   1.35313
   D65       -2.87133   0.00368   0.00000   0.01805   0.01787  -2.85346
   D66       -0.74029   0.00021   0.00000   0.00142   0.00140  -0.73889
   D67       -2.80801  -0.00347   0.00000  -0.00881  -0.00864  -2.81665
   D68       -0.74174   0.00025   0.00000   0.00173   0.00169  -0.74005
   D69        1.38930  -0.00322   0.00000  -0.01491  -0.01479   1.37452
         Item               Value     Threshold  Converged?
 Maximum Force            0.049281     0.000450     NO 
 RMS     Force            0.011711     0.000300     NO 
 Maximum Displacement     0.107320     0.001800     NO 
 RMS     Displacement     0.039285     0.001200     NO 
 Predicted change in Energy=-3.037734D-02
 GradGradGradGradGradGradGradGradGradGradGradGradGradGradGradGradGradGrad

                          Input orientation:                          
 ---------------------------------------------------------------------
 Center     Atomic      Atomic             Coordinates (Angstroms)
 Number     Number       Type             X           Y           Z
 ---------------------------------------------------------------------
      1         14           0        0.000376   -0.000605   -0.002005
      2          8           0        1.760584    0.026392   -0.022839
      3          8           0       -1.760407    0.003185   -0.030311
      4          8           0       -0.005720   -0.385559   -1.721764
      5          8           0       -0.031382    0.341069    1.724537
      6          8           0        0.038551   -1.721067    0.371057
      7          8           0        0.002253    1.726709   -0.341898
      8          6           0        1.258605    2.173401   -0.767959
      9          1           0        1.358574    2.021265   -1.854682
     10          1           0        1.369825    3.248441   -0.554403
     11          6           0        2.269740    1.330316   -0.018683
     12          1           0        3.263667    1.351656   -0.494069
     13          1           0        2.371952    1.686711    1.019302
     14          6           0       -2.262471    0.045098   -1.336236
     15          1           0       -3.275779   -0.386629   -1.364163
     16          1           0       -2.318903    1.088838   -1.684192
     17          6           0       -1.280061   -0.747170   -2.177384
     18          1           0       -1.376686   -0.517958   -3.251203
     19          1           0       -1.434242   -1.828905   -2.037171
     20          6           0        0.298253   -1.962131    1.725540
     21          1           0        1.385865   -1.994890    1.898728
     22          1           0       -0.131557   -2.931275    2.026926
     23          6           0       -0.326853   -0.802882    2.477527
     24          1           0       -1.418343   -0.931869    2.552314
     25          1           0        0.081757   -0.699843    3.495630
 ---------------------------------------------------------------------
                    Distance matrix (angstroms):
                    1          2          3          4          5
     1  Si   0.000000
     2  O    1.760538   0.000000
     3  O    1.761014   3.521075   0.000000
     4  O    1.762328   2.485131   2.468007   0.000000
     5  O    1.760311   2.522595   2.486602   3.522164   0.000000
     6  O    1.760859   2.484787   2.523963   2.483031   2.467631
     7  O    1.760438   2.466698   2.484872   2.523047   2.488229
     8  C    2.626047   2.327409   3.790566   3.009408   3.351722
     9  H    3.060241   2.738024   4.138722   2.769796   4.191163
    10  H    3.568870   3.288899   4.539241   4.057193   3.950919
    11  C    2.630901   1.399813   4.243053   3.320005   3.051653
    12  H    3.566484   2.058553   5.222525   3.900518   4.098884
    13  H    3.084554   2.053409   4.583922   4.178645   2.843259
    14  C    2.627306   4.232059   1.399737   2.329597   3.799169
    15  H    3.568989   5.228258   2.056081   3.289554   4.538251
    16  H    3.065239   4.531125   2.055695   2.743369   4.172690
    17  C    2.632329   3.806046   2.324583   1.400820   4.238921
    18  H    3.566685   4.534436   3.285266   2.058218   5.225492
    19  H    3.089128   4.207917   2.736864   2.055092   4.563689
    20  C    2.630727   3.024808   3.344183   3.802878   2.326669
    21  H    3.083754   2.813968   4.196727   4.199335   2.737816
    22  H    3.566903   4.065652   3.936551   4.533121   3.287812
    23  C    2.626558   3.361089   2.999012   4.232178   1.401042
    24  H    3.066685   4.201815   2.767903   4.534501   2.056514
    25  H    3.567773   3.965539   4.039811   5.227583   2.057442
                    6          7          8          9         10
     6  O    0.000000
     7  O    3.520906   0.000000
     8  C    4.237071   1.399815   0.000000
     9  H    4.549882   2.053018   1.101864   0.000000
    10  H    5.227311   2.056959   1.101675   1.787963   0.000000
    11  C    3.800137   2.324455   1.514794   2.162990   2.185417
    12  H    4.537780   3.286433   2.184160   2.434959   2.681058
    13  H    4.180662   2.733119   2.161183   3.065721   2.433066
    14  C    3.365841   2.990902   4.153382   4.157642   4.905736
    15  H    3.971963   4.031962   5.241169   5.245550   5.954081
    16  H    4.204426   2.756156   3.848938   3.797673   4.421201
    17  C    3.030143   3.336677   4.118378   3.838068   5.061707
    18  H    4.070766   3.924800   4.511615   3.984919   5.385334
    19  H    2.824944   4.192834   4.988063   4.759930   5.986722
    20  C    1.400064   4.239039   4.923661   5.459827   5.787613
    21  H    2.055240   4.559066   4.949956   5.497120   5.788837
    22  H    2.058019   5.227432   5.983448   6.466454   6.863403
    23  C    2.326757   3.802144   4.680290   5.439164   5.337090
    24  H    2.739206   4.178827   5.275696   5.987811   5.907670
    25  H    3.287509   4.541046   5.274343   6.136817   5.800934
                   11         12         13         14         15
    11  C    0.000000
    12  H    1.101970   0.000000
    13  H    1.102215   1.788215   0.000000
    14  C    4.891694   5.740604   5.451727   0.000000
    15  H    5.959111   6.822247   6.471207   1.101800   0.000000
    16  H    4.887522   5.714066   5.447059   1.101658   1.787466
    17  C    4.645108   5.280539   5.429529   1.516690   2.184996
    18  H    5.211692   5.712278   6.095086   2.183746   2.680433
    19  H    5.270148   5.879412   6.015704   2.165448   2.434001
    20  C    4.215362   4.970063   4.255942   4.467745   4.980178
    21  H    3.938870   4.522277   3.911514   5.285536   5.913026
    22  H    5.302066   6.018842   5.348706   4.970961   5.278337
    23  C    4.186154   5.134613   3.950701   4.360100   4.860866
    24  H    5.032838   6.034580   4.855247   4.097296   4.368769
    25  H    4.610771   5.500082   4.131928   5.421924   5.915127
                   16         17         18         19         20
    16  H    0.000000
    17  C    2.166416   0.000000
    18  H    2.434151   1.102253   0.000000
    19  H    3.069275   1.101627   1.787671   0.000000
    20  C    5.271071   4.381783   5.446010   4.144548   0.000000
    21  H    6.005996   5.027788   6.027836   4.844776   1.101801
    22  H    5.892214   4.874998   5.935747   4.407845   1.102185
    23  C    4.986659   4.751832   5.831096   4.760413   1.516609
    24  H    4.779356   4.735322   5.818407   4.676355   2.166033
    25  H    5.982733   5.834370   6.905063   5.846787   2.184825
                   21         22         23         24         25
    21  H    0.000000
    22  H    1.787686   0.000000
    23  C    2.165477   2.184317   0.000000
    24  H    3.069327   2.435051   1.101627   0.000000
    25  H    2.434736   2.679903   1.101867   1.787171   0.000000
 Stoichiometry    C6H12O6Si(2-)
 Framework group  C1[X(C6H12O6Si)]
 Deg. of freedom    69
 Full point group                 C1      NOp   1
 Largest Abelian subgroup         C1      NOp   1
 Largest concise Abelian subgroup C1      NOp   1
                         Standard orientation:                         
 ---------------------------------------------------------------------
 Center     Atomic      Atomic             Coordinates (Angstroms)
 Number     Number       Type             X           Y           Z
 ---------------------------------------------------------------------
      1         14           0       -0.008451    0.001546    0.000511
      2          8           0       -0.395175    1.402683    0.993866
      3          8           0        0.434269   -1.384583   -0.991364
      4          8           0        1.357694   -0.357910    1.054189
[...]
 .00111812,-0.00019950,0.00033168,-0.00004484,-0.00031797,-0.00017526,0
 .00017219,0.00035538,0.00021759,-0.00059956,-0.00031782,-0.00065799,0.
 00019441,-0.00004083,-0.00011367,-0.00001062,-0.00003213,0.00014025,0.
 02560638,-0.02673868,-0.08769771,-0.00276107,0.00141277,0.00447621,-0.
 00494809,0.00531078,0.00401564,0.03307564,-0.01205919,0.55659505,-0.00
 415699,0.00290342,0.00583091,-0.00134310,-0.00093569,-0.00077145,-0.00
 058893,0.00331926,0.00416530,-0.01635775,-0.00077732,-0.04326958,0.000
 45784,-0.00012519,-0.00006612,0.00019889,0.00063579,-0.00153678,0.0001
 6145,-0.00077263,-0.00030522,0.00023790,0.00019844,-0.00019599,-0.0000
 0171,0.00005527,0.00012454,-0.00002598,-0.00014223,0.00000596,0.000167
 90,0.00062432,-0.00005972,-0.00013776,-0.00009411,0.00004421,-0.000073
 17,-0.00019696,-0.00012135,0.00656618,-0.00692015,0.01784333,-0.000538
 93,-0.00058056,-0.00114703,0.00099650,-0.00029959,-0.00063347,-0.04531
 784,0.00281061,-0.00414399,0.05675289,-0.00011710,-0.00081535,-0.00049
 103,-0.00011570,0.00001431,-0.00006222,0.00164902,-0.00048049,-0.00325
 334,-0.00073821,0.00579942,-0.01092005,-0.00012445,0.00016729,-0.00003
 160,0.00026590,0.00064909,0.00019199,-0.00001774,-0.00010984,0.0000897
 8,0.00001431,-0.00001093,-0.00006426,-0.00002657,-0.00002352,0.0000318
 1,-0.00001108,0.00001557,0.00003937,-0.00005191,-0.00001261,-0.0000259
 8,0.00002275,0.00000205,-0.00001402,0.00000654,-0.00000882,0.00000745,
 -0.00198762,0.00300706,-0.01630541,0.00066232,0.00008959,0.00022974,-0
 .00069916,0.00085217,0.00009700,0.00236151,-0.06395681,0.05229661,-0.0
 0110221,0.06309674,0.00154820,0.00328436,0.00597816,-0.00144414,-0.000
 95797,-0.00058780,0.00250361,-0.00413733,-0.00330893,-0.01872725,-0.00
 670501,-0.01452978,-0.00026133,0.00000501,-0.00075781,-0.00057121,0.00
 106429,-0.00199220,-0.00076129,-0.00156581,0.00001161,0.00072487,0.000
 31053,-0.00049019,-0.00009776,0.00009837,0.00033381,-0.00012330,-0.000
 32149,-0.00003556,0.00032859,0.00082121,0.00004962,-0.00027879,-0.0001
 0058,0.00010165,-0.00005885,-0.00020358,-0.00015161,-0.00497376,0.0104
 6058,-0.01587436,0.00169805,-0.00044527,-0.00052021,-0.00028847,-0.001
 76572,0.00148067,-0.00268019,0.04779480,-0.23828769,0.02129418,-0.0517
 2018,0.27467821,-0.00179217,-0.00125564,0.00763913,-0.00067919,0.00007
 335,-0.00094966,0.00169695,-0.00175987,-0.00048355,-0.02381868,-0.0386
 4291,-0.00849563,0.00021514,0.00034691,-0.00030709,0.00036287,0.000885
 45,-0.00011397,0.00001721,-0.00163681,-0.00121969,0.00051983,0.0002834
 4,0.00006980,0.00007657,0.00017964,-0.00000867,-0.00007810,-0.00019068
 ,-0.00007580,0.00031118,0.00039617,0.00012434,-0.00010243,-0.00001878,
 0.00003921,-0.00007964,-0.00011240,-0.00013517,0.00064828,0.02252073,-
 0.00352309,0.00115490,-0.00019023,-0.00064578,-0.00210015,0.00337385,0
 .00285605,-0.04605123,-0.02286032,0.00539168,0.00286437,-0.00003710,0.
 00205680,0.06679311,-0.00051443,-0.00112031,0.00874747,-0.00086071,-0.
 00003187,-0.00096225,-0.00013196,0.00248553,-0.00154892,-0.02524857,-0
 .00706273,-0.01057709,0.00006206,0.00064960,-0.00074241,0.00055777,0.0
 0213829,-0.00079704,-0.00055157,-0.00128656,-0.00116648,0.00077681,0.0
 0044618,-0.00001038,0.00005519,0.00014087,0.00002676,-0.00011856,-0.00
 024771,-0.00008398,0.00033967,0.00041973,0.00010600,-0.00018357,-0.000
 01329,0.00006142,-0.00009544,-0.00014001,-0.00018635,-0.00116599,-0.02
 099001,0.00690971,0.00170803,0.00132968,0.00012362,0.00332758,-0.00132
 338,-0.00285381,-0.01752174,-0.24096826,0.02795194,0.00103485,-0.00840
 483,0.00407039,0.03840647,0.27407750,-0.00075865,-0.00155937,0.0009934
 7,-0.00007598,0.00019079,-0.00024848,0.00001392,0.00159226,0.00146852,
 -0.00822624,-0.01436256,0.00494933,0.00001434,0.00017398,-0.00003781,0
 .00002835,0.00008655,0.00044510,-0.00017946,-0.00033886,-0.00029151,0.
 00019362,0.00003522,-0.00014502,0.00001383,0.00005540,0.00006886,-0.00
 001592,-0.00002137,0.00000077,0.00004815,0.00004819,0.00004370,-0.0000
 1146,0.00001434,0.00000009,-0.00001028,-0.00001741,-0.00001426,-0.0004
 5310,-0.01778659,0.00328582,-0.00075408,0.00056402,0.00082712,0.001839
 93,-0.00296041,-0.00085610,0.00743187,0.03271130,-0.05818036,0.0029290
 7,0.03020003,-0.00663144,-0.00211892,-0.02875541,0.05430456,0.00399370
 ,0.00952747,-0.00348334,-0.00382965,-0.00118563,-0.00168928,-0.0003082
 6,0.00044440,0.00118626,0.00116424,-0.00127397,0.00204427,0.00820070,-
 0.00477494,-0.00267651,-0.07701949,0.00252386,-0.03321909,-0.00114133,
 -0.00064416,0.00032331,0.00071570,0.00020379,-0.00011803,-0.00011801,0
 .00002996,0.00003532,-0.00012799,-0.00003963,-0.00001990,-0.00067898,-
 0.00080208,0.00010232,-0.00019387,-0.00011513,0.00007752,-0.00000332,-
 0.00021518,-0.00008112,-0.00022278,0.00005272,-0.00059530,0.00015090,0
 .00007004,0.00004992,0.00003430,-0.00022479,0.00021243,-0.00043880,-0.
 00024947,-0.00006135,0.00022611,-0.00003894,0.00032767,-0.00003561,0.0
 0008397,0.00001191,0.52059744,0.00410643,-0.01391180,0.01916543,0.0010
 8481,0.00055916,0.00009099,-0.00000773,-0.00009005,-0.00108961,0.00007
 090,-0.00068684,0.00265766,0.00857190,-0.05691343,0.00327767,0.0024530
 7,-0.09061174,0.01644877,0.00001681,0.00065477,-0.00032310,-0.00012612
 ,-0.00006552,0.00009940,0.00004330,0.00001090,-0.00010614,0.00002161,0
 .00014777,-0.00000316,-0.00024735,-0.00048546,-0.00024663,0.00028867,0
 .00019904,-0.00011075,0.00001836,0.00013447,0.00013817,0.00043457,0.00
 003359,0.00067226,-0.00024306,-0.00011731,-0.00009942,-0.00007453,0.00
 017779,-0.00016297,-0.00028136,-0.00041509,0.00001120,0.00019089,0.000
 22668,-0.00002037,0.00029878,0.00004108,0.00023175,0.02206473,0.531072
 93,-0.00306167,0.04548131,-0.01267657,-0.00572683,-0.00681023,-0.00155
 036,0.00483716,-0.00551806,0.00147231,0.00078698,-0.00073157,0.0031077
 5,-0.00695006,0.01018168,-0.01033820,-0.03558852,0.04328010,-0.2608577
 4,-0.00038108,-0.00141917,-0.00103443,0.00023929,0.00012014,-0.0002852
 3,0.00002487,0.00009193,0.00003375,-0.00004344,-0.00051953,-0.00002716
 ,0.00010520,0.00161500,0.00145865,-0.00083204,-0.00075016,0.00020827,-
 0.00033992,-0.00091162,-0.00083036,-0.00123491,0.00011011,-0.00243464,
 0.00066721,0.00021415,0.00020564,0.00030050,-0.00070035,0.00072704,-0.
 00094488,0.00063025,-0.00082896,0.00033692,-0.00046889,0.00088490,-0.0
 0017859,-0.00024078,-0.00023378,0.01208721,-0.05364605,0.47895801,-0.0
 0252818,-0.00807769,0.00134239,0.00229630,0.00047178,0.00100248,-0.000
 97705,0.00127154,-0.00080086,0.00005216,0.00063180,-0.00102498,0.00243
 408,0.00125762,-0.00038982,-0.00242152,0.00663061,-0.02554248,0.000727
 25,0.00054688,-0.00015737,-0.00046812,-0.00010853,0.00013389,0.0000751
 4,-0.00002336,-0.00004788,0.00007729,0.00010484,0.00001346,0.00002974,
 0.00012384,-0.00024834,0.00022121,0.00012048,-0.00007196,0.00002886,0.
 00021924,0.00014431,0.00037079,-0.00010155,0.00081003,-0.00015464,-0.0
 0005491,-0.00005575,-0.00009156,0.00022324,-0.00024311,0.00034861,-0.0
 0007767,0.00033931,-0.00006930,0.00008890,-0.00026000,0.00006470,0.000
 01849,0.00008994,-0.24603119,0.00456238,-0.01906818,0.27755209,0.00169
 169,0.00072561,0.00030725,-0.00026381,0.00044241,-0.00005200,0.0001481
 3,-0.00024411,0.00025553,-0.00018981,-0.00015573,0.00009771,-0.0020939
 9,0.00165499,0.00005633,0.00728750,0.00463183,0.00645832,-0.00024974,-
 0.00004292,0.00004369,0.00016899,0.00007142,0.00000256,-0.00001881,0.0
 0000645,-0.00000738,-0.00003975,0.00003826,-0.00001025,-0.00022341,-0.
 00026358,-0.00012535,0.00004611,0.00005687,-0.00003386,0.00002631,0.00
 002706,0.00001183,-0.00008275,-0.00003290,-0.00016064,0.00003239,0.000
 00762,0.00001576,0.00003057,-0.00003796,0.00006521,-0.00003449,0.00001
 343,-0.00005128,-0.00001025,-0.00000864,0.00002604,-0.00001589,-0.0000
 0523,-0.00001420,-0.00120834,-0.05396706,-0.00224771,-0.00618076,0.049
 98366,-0.00329020,-0.00780148,-0.00028498,0.00107545,-0.00013764,0.000
 47808,-0.00138344,0.00166557,-0.00036982,0.00027005,0.00066640,-0.0008
 0261,-0.00116188,0.00079856,0.00149026,-0.03886882,0.00947930,-0.02856
 580,0.00047953,0.00026007,0.00009309,-0.00029323,-0.00015768,0.0000090
 5,0.00002198,-0.00001533,0.00000072,0.00008198,0.00002040,0.00002523,0
 .00041024,0.00020130,0.00009504,0.00006187,0.00004508,-0.00001463,-0.0
 0000773,0.00003040,-0.00000745,0.00025690,-0.00004557,0.00060060,-0.00
 013236,-0.00003765,-0.00005415,-0.00009726,0.00017021,-0.00020517,0.00
 032066,-0.00018301,0.00034605,-0.00004057,0.00009766,-0.00018193,0.000
 07430,0.00006365,0.00010733,-0.02260728,0.00074102,-0.04498191,0.03920
 957,-0.00139245,0.06783773,-0.00117579,0.00167444,-0.00081537,0.000396
 89,-0.00060209,0.00064453,0.00015711,-0.00014543,0.00013886,0.00019721
 ,0.00002395,0.00016100,0.00079687,0.00260248,0.00055652,0.00825863,0.0
 0709346,0.00112465,0.00014716,-0.00016086,-0.00001862,-0.00005400,0.00
 001412,-0.00003765,0.00000918,-0.00000709,0.00004386,0.00002534,-0.000
 09158,-0.00000071,0.00036524,0.00059032,-0.00004329,-0.00007915,-0.000
 03291,0.00004020,-0.00004051,-0.00004674,-0.00007466,-0.00012669,0.000
 02795,-0.00015403,0.00007651,0.00003157,0.00000864,0.00000949,-0.00003
 678,0.00003262,-0.00014819,-0.00002253,-0.00005414,0.00001662,-0.00003
 061,0.00007652,0.00002014,0.00003361,-0.00002571,-0.08891799,-0.078663
 75,0.02060366,-0.01460869,-0.02801865,0.00591822,0.09003101,-0.0012848
 1,0.00419084,-0.00335970,-0.00130667,-0.00111349,0.00047909,0.00126828
 ,-0.00022542,0.00077422,0.00065267,-0.00016990,0.00131705,0.00378279,-
 0.00599624,-0.00157676,0.00379627,-0.00419899,0.01582280,-0.00022759,-
 0.00059029,0.00055722,0.00037695,0.00022397,-0.00019751,-0.00007320,-0
 .00000968,0.00016406,-0.00003621,-0.00019052,-0.00001586,0.00017912,0.
 00065448,-0.00002452,-0.00027786,-0.00015943,0.00013286,-0.00000717,-0
 .00009358,-0.00011734,-0.00033064,0.00002181,-0.00056368,0.00029059,0.
 00009472,0.00010270,0.00005124,-0.00011319,0.00013412,-0.00067578,-0.0
 0029265,-0.00024122,0.00011822,-0.00001990,0.00027247,0.00007648,0.000
 20597,-0.00004733,-0.07424172,-0.20387711,0.03795256,-0.00231293,-0.00
 118407,-0.00108663,0.08426685,0.22958514,0.00192156,-0.00817013,-0.002
 00520,0.00111003,0.00154915,0.00009388,-0.00097046,0.00055058,-0.00009
 453,-0.00093480,0.00074642,-0.00211274,0.00168162,-0.00349031,0.000798
 00,0.00692217,0.03996789,-0.02925299,-0.00004563,0.00031758,0.00026329
 ,-0.00002323,-0.00007030,0.00005015,-0.00001862,-0.00001904,-0.0000182
 3,0.00001182,0.00011141,0.00000886,0.00005132,-0.00052111,-0.00011176,
 0.00018439,0.00016751,-0.00004190,0.00008984,0.00018076,0.00015058,0.0
 0023786,-0.00002206,0.00034191,-0.00018859,-0.00003885,-0.00003993,-0.
 00004001,0.00007725,-0.00009664,0.00090980,0.00040224,0.00030121,-0.00
 020184,-0.00001122,-0.00028418,-0.00010408,-0.00022667,0.00004145,0.02
 035231,0.03924332,-0.05464573,0.00109686,-0.00199746,0.00371972,-0.024
 21485,-0.05974503,0.07473287,0.00368016,0.00035633,0.00967497,-0.00026
 619,0.00098906,-0.00023930,-0.00391056,-0.00134674,-0.00091236,-0.0011
 3796,0.00001012,-0.00075514,-0.07662949,-0.02693047,0.01424035,0.00845
 562,-0.00441886,-0.00385278,0.00124996,0.00091602,-0.00112139,-0.00041
 096,-0.00006016,-0.00020631,0.00017909,0.00003343,-0.00025582,0.000046
 30,0.00016918,0.00001574,-0.00025132,-0.00037774,0.00028819,0.00023646
 ,0.00014712,-0.00018208,0.00004389,-0.00005251,-0.00000041,-0.00056763
 ,-0.00037143,-0.00062931,-0.00029809,-0.00006591,-0.00027047,0.0000758
 7,-0.00009537,0.00026776,0.00066926,0.00021225,0.00016139,-0.00011082,
 0.00001100,-0.00005961,-0.00007154,-0.00017272,0.00002235,-0.10149325,
 0.03543965,0.02432542,-0.01794373,0.02643397,0.01753865,0.00336153,-0.
 01605896,-0.00685178,0.52100520,-0.00121346,0.01117527,0.03407512,0.00
 464195,-0.00135000,-0.00508637,-0.00453365,-0.00229362,-0.00526475,-0.
 00035469,-0.00170967,-0.00043749,-0.02897772,-0.20860122,0.09634460,-0
 .00257929,-0.01297369,-0.00940205,0.00084808,0.00287837,-0.00281167,-0
 .00133640,-0.00061126,0.00093456,0.00023973,0.00005829,-0.00059449,0.0
 0024797,0.00046988,0.00002912,-0.00099692,-0.00168709,0.00066158,0.000
 70778,0.00020545,-0.00049912,-0.00053399,-0.00019984,0.00020048,-0.000
 10663,-0.00025071,0.00088945,-0.00075637,-0.00026704,-0.00064055,-0.00
 007308,0.00022265,-0.00028772,0.00022925,0.00063208,0.00003157,0.00004
 792,-0.00009469,-0.00028078,-0.00021799,-0.00045403,-0.00008695,0.0363
 1049,-0.11618414,-0.04446055,-0.00280051,0.00032284,-0.00083827,0.0119
 5347,-0.01745538,-0.01085731,0.01981442,0.44650321,0.00505364,0.008077
 18,-0.03742265,-0.00227876,-0.00090045,0.00250291,0.00270826,0.0011054
 4,0.00295021,0.00014007,0.00079950,0.00101671,0.01594680,0.06956807,-0
 .14200507,0.00994140,-0.01631487,-0.05438060,0.00008445,0.00082632,0.0
 0006492,0.00053738,0.00060444,-0.00099436,-0.00002456,0.00002065,0.000
 30581,-0.00004142,-0.00035420,-0.00008899,0.00052954,0.00162220,-0.000
 15195,-0.00050544,-0.00018886,0.00046427,0.00037734,0.00004750,-0.0002
 9029,-0.00003538,0.00003376,-0.00088956,0.00052844,0.00017590,0.000431
 40,0.00012404,-0.00030326,0.00040607,-0.00024611,-0.00036538,-0.000142
 10,0.00001652,0.00004959,0.00034020,0.00016972,0.00025161,0.00007343,0
 .02270309,-0.02879469,-0.08344121,-0.00030939,0.00055034,0.00059332,-0
 .00368285,0.01071545,0.00785145,0.01558669,-0.01536855,0.56120934,-0.0
 0245628,-0.00196556,-0.00779117,-0.00094557,-0.00023731,0.00138206,0.0
 0221569,0.00062698,0.00030223,0.00073321,0.00017538,0.00056014,-0.0016
 3376,-0.02015782,0.01629884,0.00242904,0.00013348,0.00133397,0.0001158
 0,-0.00062812,0.00103517,0.00037008,0.00027726,-0.00023650,-0.00009343
 ,-0.00004740,0.00021641,-0.00002733,-0.00018497,-0.00001683,0.00041313
 ,0.00068900,-0.00024899,-0.00021571,-0.00008601,0.00014886,0.00011706,
 0.00003974,-0.00005056,0.00003982,0.00012293,0.00017010,0.00025191,0.0
 0007354,0.00017228,-0.00001203,-0.00000678,-0.00004196,-0.00046469,-0.
 00019926,-0.00010334,0.00006024,0.00001003,0.00010739,0.00007274,0.000
 17377,-0.00000263,-0.01793546,-0.00159252,-0.00232916,-0.00018623,0.00
 338570,0.00207732,0.00117544,0.00174183,-0.00055998,-0.24554094,-0.016
 63230,0.01377330,0.27649398,-0.00226016,-0.00288825,-0.00617276,-0.001
 23305,0.00033863,0.00133541,0.00078797,0.00032596,-0.00006098,0.000327
 29,0.00024288,0.00015783,-0.03223191,-0.01718591,0.01949527,-0.0019564
 9,0.00183906,0.00074533,0.00020843,-0.00043448,0.00092191,0.00032859,0
 .00023725,-0.00023388,-0.00007343,-0.00004168,0.00015181,-0.00002730,-
 0.00009560,-0.00001096,0.00022818,0.00040705,-0.00023206,-0.00015488,-
 0.00004808,0.00011594,0.00015633,0.00006471,-0.00002621,0.00026945,-0.
 00002503,0.00007474,0.00009514,0.00003984,0.00007804,-0.00002271,0.000
 03571,-0.00005477,-0.00020420,-0.00008701,-0.00008851,0.00004571,-0.00
 000304,0.00002344,0.00004644,0.00006737,0.00000572,0.02672906,0.000601
 15,-0.00110264,0.00326194,-0.00325904,-0.00320545,-0.00018743,0.001363
 99,0.00059265,-0.02229633,-0.04729574,-0.00203749,0.03437896,0.0640775
 7,0.00278885,0.00192046,0.00340717,0.00073405,0.00008680,-0.00096547,-
 0.00062322,-0.00013096,0.00042376,-0.00040680,-0.00010240,-0.00014856,
 0.02266629,0.01658205,-0.00711351,-0.00142245,-0.00005734,0.00136029,-
 0.00031645,0.00025083,-0.00062750,-0.00018254,-0.00014392,0.00015999,0
 .00004910,0.00002524,-0.00009652,-0.00000355,0.00007003,0.00000620,-0.
 00019960,-0.00045221,0.00000637,0.00009888,0.00004411,-0.00006186,-0.0
 0009710,-0.00001879,0.00009783,-0.00035428,-0.00006930,-0.00023590,-0.
 00001430,0.00000948,-0.00002533,0.00004447,-0.00007740,0.00014404,0.00
 024436,0.00004784,0.00010109,-0.00005781,0.00001158,0.00001150,-0.0000
 3081,-0.00004715,-0.00000136,0.01703135,0.00063479,0.00029056,0.002219
 86,-0.00220284,-0.00083729,-0.00061170,0.00032037,0.00077770,0.0100670
 9,-0.00510740,-0.05239986,-0.02381097,-0.00811266,0.05463426,-0.001098
 83,-0.00001367,0.00197929,0.00018226,0.00010449,-0.00015116,0.00029724
 ,0.00023482,-0.00073061,0.00013684,-0.00009938,-0.00013149,0.00839801,
 0.00422636,0.00546833,0.00084201,0.00157889,0.00213690,0.00019029,0.00
 015333,-0.00013080,-0.00016467,-0.00009928,0.00009311,0.00002354,0.000
 00855,-0.00004613,0.00002837,0.00008212,0.00001170,-0.00007971,-0.0001
 3295,0.00000665,0.00006775,0.00000125,-0.00006105,-0.00003279,0.000003
 18,0.00004532,0.00035592,0.00001656,0.00058955,-0.00008234,-0.00005074
 ,-0.00002039,-0.00004069,0.00011157,-0.00015309,-0.00003360,0.00002737
 ,0.00002019,0.00001540,0.00000614,-0.00007993,-0.00000925,-0.00001303,
 -0.00000485,0.00341289,0.00156957,0.01236486,0.00120200,-0.00062092,0.
 00008603,0.00010666,0.00023226,-0.00041572,-0.09037085,-0.01392805,-0.
 08109676,-0.01497670,-0.00621562,-0.02781271,0.09163025,0.00126292,-0.
 00526813,-0.00391039,-0.00037324,0.00038085,0.00032005,0.00060332,0.00
 049861,0.00093349,-0.00014626,0.00048100,-0.00015903,0.00814258,-0.004
 27029,0.03990471,0.00303834,-0.00224296,-0.00522835,-0.00057720,-0.000
 85002,0.00096536,0.00045177,0.00009273,-0.00004761,-0.00012960,-0.0000
 3496,0.00012836,-0.00007583,-0.00008116,0.00000921,0.00014804,0.000100
 11,0.00004247,-0.00007723,-0.00000058,0.00000517,0.00002269,0.00000558
 ,-0.00006193,0.00014235,0.00011571,-0.00023433,0.00008970,0.00002729,0
 .00012231,-0.00001349,-0.00001728,0.00001296,0.00011482,-0.00008804,0.
 00004916,-0.00002779,0.00002948,-0.00000741,0.00005088,0.00004642,0.00
 004095,-0.01302652,0.00346619,-0.02014994,0.00020429,0.00121878,0.0006
 6153,-0.00026576,-0.00065108,0.00126274,-0.01228536,-0.05103993,-0.029
 82018,-0.00009057,0.00172270,-0.00348118,0.01281717,0.05635898,-0.0021
 0647,0.00085546,0.00736188,0.00163138,0.00061753,-0.00051664,-0.001689
 66,0.00006163,-0.00193105,-0.00016498,0.00003045,-0.00075054,0.0003704
 0,0.01582629,-0.02919806,0.00273672,-0.00325886,-0.00296884,0.00092145
 ,0.00145481,-0.00126338,-0.00087910,-0.00028719,0.00028146,0.00019496,
 0.00002470,-0.00022291,0.00013297,0.00030127,0.00001471,-0.00043375,-0
 .00082090,-0.00027262,0.00032050,0.00010582,-0.00011750,-0.00002253,0.
 00017318,0.00033411,0.00010744,-0.00018312,0.00087700,-0.00033967,-0.0
 0012027,-0.00023333,-0.00005349,0.00020953,-0.00020074,0.00034084,0.00
 013225,0.00025496,-0.00004002,0.00002561,-0.00023666,-0.00003055,-0.00
 011383,0.00003057,-0.01199371,0.00119046,-0.01318059,0.00181803,0.0004
 0483,0.00090952,0.00038430,-0.00176940,-0.00042724,-0.07685184,-0.0311
 4244,-0.20600339,-0.00238597,-0.00235972,0.00109241,0.08803276,0.01864
 190,0.24636687\\-0.00003533,-0.00001763,-0.00002986,0.00000861,0.00002
 375,0.00002940,0.00008773,0.00001320,-0.00007051,-0.00007811,0.0000226
 4,0.00002456,-0.00000034,-0.00004175,-0.00001630,0.00002646,0.00005593
 ,0.00007031,0.00005094,-0.00005788,0.00004277,0.00001075,0.00002181,-0
 .00001756,0.00000417,-0.00001246,0.00001156,-0.00001490,-0.00000254,-0
 .00000211,-0.00002515,-0.00000917,-0.00004103,-0.00000444,-0.00000916,
 0.00000050,0.00000405,0.00000140,0.00000194,-0.00004138,0.00002573,0.0
 0003327,0.00000420,0.00000371,0.00001838,0.00000264,-0.00000792,-0.000
 00068,0.00004624,-0.00002422,0.00000493,0.00000460,0.00000674,0.000003
 86,-0.00001376,0.00000607,-0.00000382,-0.00001218,-0.00003867,-0.00005
 533,-0.00000945,0.00000239,0.00000331,-0.00000637,-0.00000722,-0.00001
 195,-0.00001935,0.00003114,0.00001452,0.00001176,-0.00000290,-0.000005
 28,-0.00000139,0.00001700,-0.00000488\\\@
 The archive entry for this job was punched.


 If your ship doesn't come in, swim out to it!
                          -- Jonathan Winters
 Job cpu time:       0 days 11 hours 34 minutes 59.6 seconds.
 Elapsed time:       0 days  0 hours 43 minutes 33.3 seconds.
 File lengths (MBytes):  RWF=    752 Int=      0 D2E=      0 Chk=     28 Scr=      1
 Normal termination of Gaussian 16 at Sun Oct 22 19:41:52 2023.
