 Entering Gaussian System, Link 0=/opt/software/gaussian/g16.c01/g16
 Initial command:
 /opt/software/gaussian/g16.c01/l1.exe "/scratch/arhender/16442424/Gau-9703.inp" -scrdir="/scratch/arhender/16442424/"
 Entering Link 1 = /opt/software/gaussian/g16.c01/l1.exe PID=      9704.
  
 Copyright (c) 1988-2019, Gaussian, Inc.  All Rights Reserved.
  
 This is part of the Gaussian(R) 16 program.  It is based on
 the Gaussian(R) 09 system (copyright 2009, Gaussian, Inc.),
 the Gaussian(R) 03 system (copyright 2003, Gaussian, Inc.),
 the Gaussian(R) 98 system (copyright 1998, Gaussian, Inc.),
 the Gaussian(R) 94 system (copyright 1995, Gaussian, Inc.),
 the Gaussian 92(TM) system (copyright 1992, Gaussian, Inc.),
 the Gaussian 90(TM) system (copyright 1990, Gaussian, Inc.),
 the Gaussian 88(TM) system (copyright 1988, Gaussian, Inc.),
 the Gaussian 86(TM) system (copyright 1986, Carnegie Mellon
 University), and the Gaussian 82(TM) system (copyright 1983,
 Carnegie Mellon University). Gaussian is a federally registered
 trademark of Gaussian, Inc.
  
 This software contains proprietary and confidential information,
 including trade secrets, belonging to Gaussian, Inc.
  
 This software is provided under written license and may be
 used, copied, transmitted, or stored only in accord with that
 written license.
  
 The following legend is applicable only to US Government
 contracts under FAR:
  
                    RESTRICTED RIGHTS LEGEND
  
 Use, reproduction and disclosure by the US Government is
 subject to restrictions as set forth in subparagraphs (a)
 and (c) of the Commercial Computer Software - Restricted
 Rights clause in FAR 52.227-19.
  
 Gaussian, Inc.
 340 Quinnipiac St., Bldg. 40, Wallingford CT 06492
  
  
 ---------------------------------------------------------------
 Warning -- This program may not be used in any manner that
 competes with the business of Gaussian, Inc. or will provide
 assistance to any competitor of Gaussian, Inc.  The licensee
 of this program is prohibited from giving any competitor of
 Gaussian, Inc. access to this program.  By using this program,
 the user acknowledges that Gaussian, Inc. is engaged in the
 business of creating and licensing software in the field of
 computational chemistry and represents and warrants to the
 licensee that it is not a competitor of Gaussian, Inc. and that
 it will not use this program in any manner prohibited above.
 ---------------------------------------------------------------
  

 Cite this work as:
 Gaussian 16, Revision C.01,
 M. J. Frisch, G. W. Trucks, H. B. Schlegel, G. E. Scuseria, 
 M. A. Robb, J. R. Cheeseman, G. Scalmani, V. Barone, 
 G. A. Petersson, H. Nakatsuji, X. Li, M. Caricato, A. V. Marenich, 
 J. Bloino, B. G. Janesko, R. Gomperts, B. Mennucci, H. P. Hratchian, 
 J. V. Ortiz, A. F. Izmaylov, J. L. Sonnenberg, D. Williams-Young, 
 F. Ding, F. Lipparini, F. Egidi, J. Goings, B. Peng, A. Petrone, 
 T. Henderson, D. Ranasinghe, V. G. Zakrzewski, J. Gao, N. Rega, 
 G. Zheng, W. Liang, M. Hada, M. Ehara, K. Toyota, R. Fukuda, 
 J. Hasegawa, M. Ishida, T. Nakajima, Y. Honda, O. Kitao, H. Nakai, 
 T. Vreven, K. Throssell, J. A. Montgomery, Jr., J. E. Peralta, 
 F. Ogliaro, M. J. Bearpark, J. J. Heyd, E. N. Brothers, K. N. Kudin, 
 V. N. Staroverov, T. A. Keith, R. Kobayashi, J. Normand, 
 K. Raghavachari, A. P. Rendell, J. C. Burant, S. S. Iyengar, 
 J. Tomasi, M. Cossi, J. M. Millam, M. Klene, C. Adamo, R. Cammi, 
 J. W. Ochterski, R. L. Martin, K. Morokuma, O. Farkas, 
 J. B. Foresman, and D. J. Fox, Gaussian, Inc., Wallingford CT, 2019.
 
 ******************************************
 Gaussian 16:  ES64L-G16RevC.01  3-Jul-2019
                26-Oct-2023 
 ******************************************
 %chk=Deprotonated_PL2_EG.chk
 %mem=8GB
 %nprocs=16
 Will use up to   16 processors via shared memory.
 ---------------------------------------------
 # opt freq wb97xd/def2tzvpp geom=connectivity
 ---------------------------------------------
 1/18=20,19=15,26=3,38=1,57=2/1,3;
 2/9=110,12=2,17=6,18=5,40=1/2;
 3/5=44,7=202,11=2,25=1,30=1,71=1,74=-58/1,2,3;
 4//1;
 5/5=2,38=5/2;
 6/7=2,8=2,9=2,10=2,28=1/1;
 7//1,2,3,16;
 1/18=20,19=15,26=3/3(2);
 2/9=110/2;
 99//99;
 2/9=110/2;
 3/5=44,7=202,11=2,25=1,30=1,71=1,74=-58/1,2,3;
 4/5=5,16=3,69=1/1;
 5/5=2,38=5/2;
 7//1,2,3,16;
 1/18=20,19=15,26=3/3(-5);
 2/9=110/2;
 6/7=2,8=2,9=2,10=2,19=2,28=1/1;
 99/9=1/99;
 -------------------------------------------------------
 Deprotonated PL2 ethylene glycol conformer optimization
 -------------------------------------------------------
 Symbolic Z-matrix:
 Charge = -2 Multiplicity = 1
 Si                    0.01696   0.4445   -0.05138 
 O                    -1.47461   0.50187   0.93046 
 O                     0.82783  -0.36751   1.21775 
 O                     1.47386   0.3789   -1.01036 
 O                    -0.01424   2.11989  -0.16982 
 O                    -0.80737  -0.57324  -1.15343 
 C                    -2.26023  -0.60892   0.69007 
 H                    -3.30771  -0.42266   0.96507 
 H                    -1.91244  -1.48113   1.27055 
 C                    -2.1177   -0.89681  -0.80721 
 H                    -2.32677  -1.94783  -1.04572 
 H                    -2.82677  -0.27599  -1.37733 
 C                     2.29066  -0.65448  -0.59366 
 H                     1.97672  -1.62088  -1.02703 
 H                     3.33226  -0.47817  -0.8951 
 C                     2.15032  -0.70609   0.93093 
 H                     2.38486  -1.70037   1.33291 
 H                     2.8377    0.01694   1.39611 
 

 GradGradGradGradGradGradGradGradGradGradGradGradGradGradGradGradGradGrad
 Berny optimization.
 Initialization pass.
                           ----------------------------
                           !    Initial Parameters    !
                           ! (Angstroms and Degrees)  !
 --------------------------                            --------------------------
 ! Name  Definition              Value          Derivative Info.                !
 --------------------------------------------------------------------------------
 ! R1    R(1,2)                  1.7866         estimate D2E/DX2                !
 ! R2    R(1,3)                  1.711          estimate D2E/DX2                !
 ! R3    R(1,4)                  1.7454         estimate D2E/DX2                !
 ! R4    R(1,5)                  1.6799         estimate D2E/DX2                !
 ! R5    R(1,6)                  1.7117         estimate D2E/DX2                !
 ! R6    R(2,7)                  1.3816         estimate D2E/DX2                !
 ! R7    R(3,16)                 1.395          estimate D2E/DX2                !
 ! R8    R(4,13)                 1.3815         estimate D2E/DX2                !
 ! R9    R(6,10)                 1.3934         estimate D2E/DX2                !
 ! R10   R(7,8)                  1.0989         estimate D2E/DX2                !
 ! R11   R(7,9)                  1.1039         estimate D2E/DX2                !
 ! R12   R(7,10)                 1.5314         estimate D2E/DX2                !
 ! R13   R(10,11)                1.0978         estimate D2E/DX2                !
 ! R14   R(10,12)                1.1015         estimate D2E/DX2                !
 ! R15   R(13,14)                1.1047         estimate D2E/DX2                !
 ! R16   R(13,15)                1.0986         estimate D2E/DX2                !
 ! R17   R(13,16)                1.5319         estimate D2E/DX2                !
 ! R18   R(16,17)                1.0978         estimate D2E/DX2                !
 ! R19   R(16,18)                1.1007         estimate D2E/DX2                !
 ! A1    A(2,1,3)               90.1868         estimate D2E/DX2                !
 ! A2    A(2,1,5)               89.4965         estimate D2E/DX2                !
 ! A3    A(2,1,6)               88.3297         estimate D2E/DX2                !
 ! A4    A(3,1,4)               89.6635         estimate D2E/DX2                !
 ! A5    A(3,1,5)              122.3043         estimate D2E/DX2                !
 ! A6    A(3,1,6)              115.0636         estimate D2E/DX2                !
 ! A7    A(4,1,5)               90.8166         estimate D2E/DX2                !
 ! A8    A(4,1,6)               91.4839         estimate D2E/DX2                !
 ! A9    A(5,1,6)              122.5925         estimate D2E/DX2                !
 ! A10   A(1,2,7)              110.6887         estimate D2E/DX2                !
 ! A11   A(1,3,16)             114.3287         estimate D2E/DX2                !
 ! A12   A(1,4,13)             110.8476         estimate D2E/DX2                !
 ! A13   A(1,6,10)             115.5304         estimate D2E/DX2                !
 ! A14   A(2,7,8)              111.2364         estimate D2E/DX2                !
 ! A15   A(2,7,9)              111.3823         estimate D2E/DX2                !
 ! A16   A(2,7,10)             105.5656         estimate D2E/DX2                !
 ! A17   A(8,7,9)              107.6165         estimate D2E/DX2                !
 ! A18   A(8,7,10)             111.4245         estimate D2E/DX2                !
 ! A19   A(9,7,10)             109.6494         estimate D2E/DX2                !
 ! A20   A(6,10,7)             106.6672         estimate D2E/DX2                !
 ! A21   A(6,10,11)            110.3303         estimate D2E/DX2                !
 ! A22   A(6,10,12)            110.2353         estimate D2E/DX2                !
 ! A23   A(7,10,11)            112.0044         estimate D2E/DX2                !
 ! A24   A(7,10,12)            109.889          estimate D2E/DX2                !
 ! A25   A(11,10,12)           107.7311         estimate D2E/DX2                !
 ! A26   A(4,13,14)            111.5933         estimate D2E/DX2                !
 ! A27   A(4,13,15)            110.9624         estimate D2E/DX2                !
 ! A28   A(4,13,16)            105.737          estimate D2E/DX2                !
 ! A29   A(14,13,15)           107.5895         estimate D2E/DX2                !
 ! A30   A(14,13,16)           109.5682         estimate D2E/DX2                !
 ! A31   A(15,13,16)           111.4289         estimate D2E/DX2                !
 ! A32   A(3,16,13)            106.4575         estimate D2E/DX2                !
 ! A33   A(3,16,17)            110.3094         estimate D2E/DX2                !
 ! A34   A(3,16,18)            110.2247         estimate D2E/DX2                !
 ! A35   A(13,16,17)           112.0466         estimate D2E/DX2                !
 ! A36   A(13,16,18)           109.9529         estimate D2E/DX2                !
 ! A37   A(17,16,18)           107.8632         estimate D2E/DX2                !
 ! A38   L(2,1,4,3,-1)         179.8503         estimate D2E/DX2                !
 ! A39   L(2,1,4,3,-2)         179.7241         estimate D2E/DX2                !
 ! D1    D(3,1,2,7)            -90.9698         estimate D2E/DX2                !
 ! D2    D(5,1,2,7)            146.7263         estimate D2E/DX2                !
 ! D3    D(6,1,2,7)             24.0994         estimate D2E/DX2                !
 ! D4    D(2,1,3,16)           178.6154         estimate D2E/DX2                !
 ! D5    D(4,1,3,16)            -1.1087         estimate D2E/DX2                !
 ! D6    D(5,1,3,16)           -91.8622         estimate D2E/DX2                !
 ! D7    D(6,1,3,16)            90.3721         estimate D2E/DX2                !
 ! D8    D(3,1,4,13)            23.5318         estimate D2E/DX2                !
 ! D9    D(5,1,4,13)           145.8347         estimate D2E/DX2                !
 ! D10   D(6,1,4,13)           -91.5316         estimate D2E/DX2                !
 ! D11   D(2,1,6,10)            -1.6284         estimate D2E/DX2                !
 ! D12   D(3,1,6,10)            87.7965         estimate D2E/DX2                !
 ! D13   D(4,1,6,10)           178.1191         estimate D2E/DX2                !
 ! D14   D(5,1,6,10)           -89.9621         estimate D2E/DX2                !
 ! D15   D(1,2,7,8)           -158.4084         estimate D2E/DX2                !
 ! D16   D(1,2,7,9)             81.5354         estimate D2E/DX2                !
 ! D17   D(1,2,7,10)           -37.4073         estimate D2E/DX2                !
 ! D18   D(1,3,16,13)          -18.7497         estimate D2E/DX2                !
 ! D19   D(1,3,16,17)         -140.5305         estimate D2E/DX2                !
 ! D20   D(1,3,16,18)          100.4621         estimate D2E/DX2                !
 ! D21   D(1,4,13,14)           82.0786         estimate D2E/DX2                !
 ! D22   D(1,4,13,15)         -157.9432         estimate D2E/DX2                !
 ! D23   D(1,4,13,16)          -36.9839         estimate D2E/DX2                !
 ! D24   D(1,6,10,7)           -18.4348         estimate D2E/DX2                !
 ! D25   D(1,6,10,11)         -140.3066         estimate D2E/DX2                !
 ! D26   D(1,6,10,12)          100.8297         estimate D2E/DX2                !
 ! D27   D(2,7,10,6)            35.0849         estimate D2E/DX2                !
 ! D28   D(2,7,10,11)          155.8921         estimate D2E/DX2                !
 ! D29   D(2,7,10,12)          -84.4043         estimate D2E/DX2                !
 ! D30   D(8,7,10,6)           155.9635         estimate D2E/DX2                !
 ! D31   D(8,7,10,11)          -83.2293         estimate D2E/DX2                !
 ! D32   D(8,7,10,12)           36.4743         estimate D2E/DX2                !
 ! D33   D(9,7,10,6)           -85.0033         estimate D2E/DX2                !
 ! D34   D(9,7,10,11)           35.8039         estimate D2E/DX2                !
 ! D35   D(9,7,10,12)          155.5075         estimate D2E/DX2                !
 ! D36   D(4,13,16,3)           34.9201         estimate D2E/DX2                !
 ! D37   D(4,13,16,17)         155.5907         estimate D2E/DX2                !
 ! D38   D(4,13,16,18)         -84.4689         estimate D2E/DX2                !
 ! D39   D(14,13,16,3)         -85.474          estimate D2E/DX2                !
 ! D40   D(14,13,16,17)         35.1965         estimate D2E/DX2                !
 ! D41   D(14,13,16,18)        155.137          estimate D2E/DX2                !
 ! D42   D(15,13,16,3)         155.5761         estimate D2E/DX2                !
 ! D43   D(15,13,16,17)        -83.7534         estimate D2E/DX2                !
 ! D44   D(15,13,16,18)         36.1871         estimate D2E/DX2                !
 --------------------------------------------------------------------------------
 Trust Radius=3.00D-01 FncErr=1.00D-07 GrdErr=1.00D-06 EigMax=2.50D+02 EigMin=1.00D-04
 Number of steps in this run=    108 maximum allowed number of steps=    108.
 GradGradGradGradGradGradGradGradGradGradGradGradGradGradGradGradGradGrad

                          Input orientation:                          
 ---------------------------------------------------------------------
 Center     Atomic      Atomic             Coordinates (Angstroms)
 Number     Number       Type             X           Y           Z
 ---------------------------------------------------------------------
      1         14           0        0.016964    0.444498   -0.051379
      2          8           0       -1.474611    0.501865    0.930459
      3          8           0        0.827826   -0.367505    1.217750
      4          8           0        1.473858    0.378899   -1.010359
      5          8           0       -0.014244    2.119892   -0.169819
      6          8           0       -0.807370   -0.573235   -1.153425
      7          6           0       -2.260231   -0.608917    0.690074
      8          1           0       -3.307713   -0.422656    0.965072
      9          1           0       -1.912439   -1.481134    1.270552
     10          6           0       -2.117697   -0.896813   -0.807210
     11          1           0       -2.326772   -1.947831   -1.045720
     12          1           0       -2.826766   -0.275987   -1.377328
     13          6           0        2.290656   -0.654475   -0.593655
     14          1           0        1.976723   -1.620881   -1.027031
     15          1           0        3.332257   -0.478171   -0.895096
     16          6           0        2.150319   -0.706088    0.930930
     17          1           0        2.384864   -1.700372    1.332914
     18          1           0        2.837695    0.016937    1.396109
 ---------------------------------------------------------------------
                    Distance matrix (angstroms):
                    1          2          3          4          5
     1  Si   0.000000
     2  O    1.786643   0.000000
     3  O    1.711004   2.477813   0.000000
     4  O    1.745419   3.532048   2.436995   0.000000
     5  O    1.679865   2.441576   2.970113   2.439675   0.000000
     6  O    1.711669   2.437955   2.887674   2.476091   2.974805
     7  C    2.616305   1.381601   3.142104   4.220269   3.637344
     8  H    3.583100   2.053339   4.143618   5.235288   4.312710
     9  H    3.029547   2.059039   2.958380   4.486567   4.318009
    10  C    2.631952   2.321498   3.613411   3.816802   3.732464
    11  H    3.493573   3.260747   4.191923   4.456424   4.760395
    12  H    3.219323   2.785544   4.483174   4.365651   3.886978
    13  C    2.582921   4.223421   2.345935   1.381544   3.631709
    14  H    3.009708   4.499947   2.816018   2.062104   4.323441
    15  H    3.543211   5.234415   3.278497   2.049756   4.298259
    16  C    2.615336   3.820899   1.394952   2.324521   3.726009
    17  H    3.481908   4.461767   2.052843   3.262549   4.754823
    18  H    3.199149   4.364398   2.054065   2.789652   3.874030
                    6          7          8          9         10
     6  O    0.000000
     7  C    2.347460   0.000000
     8  H    3.280613   1.098879   0.000000
     9  H    2.814449   1.103937   1.777775   0.000000
    10  C    1.393386   1.531359   2.186766   2.168100   0.000000
    11  H    2.051755   2.193194   2.707709   2.398873   1.097833
    12  H    2.053399   2.169321   2.395759   3.049531   1.101471
    13  C    3.149239   4.728700   5.815935   4.671685   4.420171
    14  H    2.977367   4.682339   5.773169   4.519292   4.163757
    15  H    4.148769   5.814274   6.895833   5.762187   5.466716
    16  C    3.620789   4.418190   5.465493   4.149945   4.612317
    17  H    4.200319   4.814709   5.845793   4.303344   5.049643
    18  H    4.487196   5.184499   6.176170   4.982344   5.499588
                   11         12         13         14         15
    11  H    0.000000
    12  H    1.776238   0.000000
    13  C    4.816407   5.190896   0.000000
    14  H    4.315937   5.000495   1.104676   0.000000
    15  H    5.848692   6.181180   1.098582   1.777826   0.000000
    16  C    5.049100   5.503128   1.531900   2.168085   2.187074
    17  H    5.283810   6.044450   2.194184   2.396297   2.712076
    18  H    6.041073   6.313785   2.170071   3.048824   2.395693
                   16         17         18
    16  C    0.000000
    17  H    1.097817   0.000000
    18  H    1.100746   1.777132   0.000000
 Stoichiometry    C4H8O5Si(2-)
 Framework group  C1[X(C4H8O5Si)]
 Deg. of freedom    48
 Full point group                 C1      NOp   1
 Largest Abelian subgroup         C1      NOp   1
 Largest concise Abelian subgroup C1      NOp   1
                         Standard orientation:                         
 ---------------------------------------------------------------------
 Center     Atomic      Atomic             Coordinates (Angstroms)
 Number     Number       Type             X           Y           Z
 ---------------------------------------------------------------------
      1         14           0       -0.013703    0.474762    0.005648
      2          8           0        1.475662    0.463187   -0.981142
      3          8           0       -0.815346   -0.458769   -1.183227
      4          8           0       -1.468310    0.476540    0.970324
      5          8           0       -0.004705    2.154282   -0.027200
      6          8           0        0.825615   -0.428717    1.192696
      7          6           0        2.276360   -0.611009   -0.643788
      8          1           0        3.320894   -0.436466   -0.937078
      9          1           0        1.939468   -1.536431   -1.142561
     10          6           0        2.139681   -0.764847    0.873681
     11          1           0        2.363086   -1.787291    1.205249
     12          1           0        2.841160   -0.085946    1.383837
     13          6           0       -2.271795   -0.600812    0.650347
     14          1           0       -1.944411   -1.520076    1.168112
     15          1           0       -3.315254   -0.411835    0.937339
     16          6           0       -2.132817   -0.787561   -0.863763
     17          1           0       -2.354605   -1.816989   -1.174071
     18          1           0       -2.830404   -0.118451   -1.390362
 ---------------------------------------------------------------------
 Rotational constants (GHZ):           2.0762593           1.0175060           0.9905358
 Standard basis: def2TZVPP (5D, 7F)
 There are   492 symmetry adapted cartesian basis functions of A   symmetry.
 There are   433 symmetry adapted basis functions of A   symmetry.
   433 basis functions,   664 primitive gaussians,   492 cartesian basis functions
    44 alpha electrons       44 beta electrons
       nuclear repulsion energy       727.1162623124 Hartrees.
 NAtoms=   18 NActive=   18 NUniq=   18 SFac= 1.00D+00 NAtFMM=   60 NAOKFM=F Big=F
 Integral buffers will be    131072 words long.
 Raffenetti 2 integral format.
 Two-electron integral symmetry is turned on.
 Nuclear repulsion after empirical dispersion term =      727.1072257332 Hartrees.
 One-electron integrals computed using PRISM.
   1 Symmetry operations used in ECPInt.
 ECPInt:  NShTT=   13041 NPrTT=   37113 LenC2=   12496 LenP2D=   27791.
 LDataN:  DoStor=T MaxTD1= 6 Len=  172
 NBasis=   433 RedAO= T EigKep=  3.05D-04  NBF=   433
 NBsUse=   433 1.00D-06 EigRej= -1.00D+00 NBFU=   433
 ExpMin= 7.01D-02 ExpMax= 4.48D+04 ExpMxC= 1.53D+03 IAcc=3 IRadAn=         5 AccDes= 0.00D+00
 Harris functional with IExCor= 4639 and IRadAn=       5 diagonalized for initial guess.
 HarFok:  IExCor= 4639 AccDes= 0.00D+00 IRadAn=         5 IDoV= 1 UseB2=F ITyADJ=14
 ICtDFT=  3500011 ScaDFX=  1.000000  1.000000  1.000000  1.000000
 FoFCou: FMM=F IPFlag=           0 FMFlag=      100000 FMFlg1=           0
         NFxFlg=           0 DoJE=T BraDBF=F KetDBF=T FulRan=T
         wScrn=  0.000000 ICntrl=       500 IOpCl=  0 I1Cent=   200000004 NGrid=           0
         NMat0=    1 NMatS0=      1 NMatT0=    0 NMatD0=    1 NMtDS0=    0 NMtDT0=    0
 Petite list used in FoFCou.
 Requested convergence on RMS density matrix=1.00D-08 within 128 cycles.
 Requested convergence on MAX density matrix=1.00D-06.
 Requested convergence on             energy=1.00D-06.
 No special actions if energy rises.
 Integral accuracy reduced to 1.0D-05 until final iterations.
 Initial convergence to 1.0D-05 achieved.  Increase integral accuracy.
 SCF Done:  E(RwB97XD) =  -822.953540953     A.U. after   15 cycles
            NFock= 15  Conv=0.87D-08     -V/T= 2.0032

 **********************************************************************

            Population analysis using the SCF Density.

 **********************************************************************

 Orbital symmetries:
       Occupied  (A) (A) (A) (A) (A) (A) (A) (A) (A) (A) (A) (A)
                 (A) (A) (A) (A) (A) (A) (A) (A) (A) (A) (A) (A)
                 (A) (A) (A) (A) (A) (A) (A) (A) (A) (A) (A) (A)
                 (A) (A) (A) (A) (A) (A) (A) (A)
       Virtual   (A) (A) (A) (A) (A) (A) (A) (A) (A) (A) (A) (A)
                 (A) (A) (A) (A) (A) (A) (A) (A) (A) (A) (A) (A)
                 (A) (A) (A) (A) (A) (A) (A) (A) (A) (A) (A) (A)
                 (A) (A) (A) (A) (A) (A) (A) (A) (A) (A) (A) (A)
                 (A) (A) (A) (A) (A) (A) (A) (A) (A) (A) (A) (A)
                 (A) (A) (A) (A) (A) (A) (A) (A) (A) (A) (A) (A)
                 (A) (A) (A) (A) (A) (A) (A) (A) (A) (A) (A) (A)
                 (A) (A) (A) (A) (A) (A) (A) (A) (A) (A) (A) (A)
                 (A) (A) (A) (A) (A) (A) (A) (A) (A) (A) (A) (A)
                 (A) (A) (A) (A) (A) (A) (A) (A) (A) (A) (A) (A)
                 (A) (A) (A) (A) (A) (A) (A) (A) (A) (A) (A) (A)
                 (A) (A) (A) (A) (A) (A) (A) (A) (A) (A) (A) (A)
                 (A) (A) (A) (A) (A) (A) (A) (A) (A) (A) (A) (A)
                 (A) (A) (A) (A) (A) (A) (A) (A) (A) (A) (A) (A)
                 (A) (A) (A) (A) (A) (A) (A) (A) (A) (A) (A) (A)
                 (A) (A) (A) (A) (A) (A) (A) (A) (A) (A) (A) (A)
                 (A) (A) (A) (A) (A) (A) (A) (A) (A) (A) (A) (A)
                 (A) (A) (A) (A) (A) (A) (A) (A) (A) (A) (A) (A)
                 (A) (A) (A) (A) (A) (A) (A) (A) (A) (A) (A) (A)
                 (A) (A) (A) (A) (A) (A) (A) (A) (A) (A) (A) (A)
                 (A) (A) (A) (A) (A) (A) (A) (A) (A) (A) (A) (A)
                 (A) (A) (A) (A) (A) (A) (A) (A) (A) (A) (A) (A)
                 (A) (A) (A) (A) (A) (A) (A) (A) (A) (A) (A) (A)
                 (A) (A) (A) (A) (A) (A) (A) (A) (A) (A) (A) (A)
                 (A) (A) (A) (A) (A) (A) (A) (A) (A) (A) (A) (A)
                 (A) (A) (A) (A) (A) (A) (A) (A) (A) (A) (A) (A)
                 (A) (A) (A) (A) (A) (A) (A) (A) (A) (A) (A) (A)
                 (A) (A) (A) (A) (A) (A) (A) (A) (A) (A) (A) (A)
                 (A) (A) (A) (A) (A) (A) (A) (A) (A) (A) (A) (A)
                 (A) (A) (A) (A) (A) (A) (A) (A) (A) (A) (A) (A)
                 (A) (A) (A) (A) (A) (A) (A) (A) (A) (A) (A) (A)
                 (A) (A) (A) (A) (A) (A) (A) (A) (A) (A) (A) (A)
                 (A) (A) (A) (A) (A)
 The electronic state is 1-A.
 Alpha  occ. eigenvalues --  -65.90778 -18.90329 -18.90207 -18.87060 -18.86280
 Alpha  occ. eigenvalues --  -18.72722 -10.03351 -10.03103 -10.02406 -10.01887
 Alpha  occ. eigenvalues --   -5.01976  -3.36670  -3.36510  -3.36262  -0.81080
 Alpha  occ. eigenvalues --   -0.78916  -0.74097  -0.72605  -0.53657  -0.50466
 Alpha  occ. eigenvalues --   -0.50182  -0.39503  -0.38603  -0.28656  -0.27954
 Alpha  occ. eigenvalues --   -0.27141  -0.25901  -0.25102  -0.21398  -0.18594
 Alpha  occ. eigenvalues --   -0.18421  -0.17869  -0.16035  -0.08457  -0.07343
 Alpha  occ. eigenvalues --   -0.06597  -0.05693  -0.04524  -0.03996  -0.00975
 Alpha  occ. eigenvalues --   -0.00183   0.03656   0.09259   0.11473
 Alpha virt. eigenvalues --    0.36909   0.37857   0.40664   0.40764   0.41613
 Alpha virt. eigenvalues --    0.41681   0.43154   0.46114   0.47125   0.47389
 Alpha virt. eigenvalues --    0.51214   0.51517   0.53085   0.53261   0.53772
 Alpha virt. eigenvalues --    0.54535   0.56559   0.57806   0.60595   0.60862
 Alpha virt. eigenvalues --    0.65881   0.66145   0.66572   0.68519   0.68579
 Alpha virt. eigenvalues --    0.69865   0.70130   0.71207   0.72340   0.72657
 Alpha virt. eigenvalues --    0.74576   0.74997   0.75120   0.75302   0.77131
 Alpha virt. eigenvalues --    0.77868   0.78551   0.79112   0.79628   0.81165
 Alpha virt. eigenvalues --    0.81543   0.83568   0.85351   0.86560   0.86846
 Alpha virt. eigenvalues --    0.89015   0.89601   0.90253   0.91819   0.92041
 Alpha virt. eigenvalues --    0.93171   0.97196   0.97999   1.00748   1.02118
 Alpha virt. eigenvalues --    1.03868   1.05067   1.07766   1.09395   1.10492
 Alpha virt. eigenvalues --    1.11186   1.13309   1.14617   1.15344   1.16085
 Alpha virt. eigenvalues --    1.17663   1.18131   1.18765   1.19335   1.19545
 Alpha virt. eigenvalues --    1.21370   1.22331   1.24247   1.26467   1.26763
 Alpha virt. eigenvalues --    1.28074   1.29151   1.32956   1.34692   1.34803
 Alpha virt. eigenvalues --    1.35803   1.36540   1.36644   1.40037   1.40833
 Alpha virt. eigenvalues --    1.40983   1.42028   1.44595   1.44708   1.45955
 Alpha virt. eigenvalues --    1.47172   1.47939   1.50516   1.50723   1.52830
 Alpha virt. eigenvalues --    1.54149   1.54581   1.57110   1.57863   1.59063
 Alpha virt. eigenvalues --    1.61224   1.62752   1.63023   1.66144   1.66174
 Alpha virt. eigenvalues --    1.67452   1.68552   1.70110   1.71916   1.72548
 Alpha virt. eigenvalues --    1.74014   1.76227   1.76462   1.78984   1.79323
 Alpha virt. eigenvalues --    1.80184   1.80842   1.83893   1.86620   1.88727
 Alpha virt. eigenvalues --    1.89074   1.90340   1.93292   1.94359   1.94719
 Alpha virt. eigenvalues --    1.97519   1.99020   2.02186   2.04638   2.05355
 Alpha virt. eigenvalues --    2.11901   2.16639   2.17307   2.18191   2.20125
 Alpha virt. eigenvalues --    2.21144   2.24950   2.25785   2.30771   2.31817
 Alpha virt. eigenvalues --    2.31955   2.35958   2.36770   2.39087   2.40718
 Alpha virt. eigenvalues --    2.43785   2.44692   2.46014   2.47709   2.49244
 Alpha virt. eigenvalues --    2.50602   2.51250   2.54956   2.59555   2.60766
 Alpha virt. eigenvalues --    2.64007   2.65464   2.67977   2.69431   2.70473
 Alpha virt. eigenvalues --    2.72720   2.73783   2.77207   2.78440   2.81760
 Alpha virt. eigenvalues --    2.84053   2.84861   2.85719   2.93031   2.95040
 Alpha virt. eigenvalues --    2.97453   2.98863   2.99323   3.00157   3.01704
 Alpha virt. eigenvalues --    3.02481   3.04582   3.12692   3.13816   3.14148
 Alpha virt. eigenvalues --    3.15537   3.17710   3.19040   3.21652   3.22251
 Alpha virt. eigenvalues --    3.22641   3.24010   3.26036   3.28856   3.31593
 Alpha virt. eigenvalues --    3.33735   3.35626   3.36056   3.36945   3.37284
 Alpha virt. eigenvalues --    3.39074   3.39223   3.44212   3.44789   3.47085
 Alpha virt. eigenvalues --    3.48013   3.49378   3.51498   3.52461   3.53177
 Alpha virt. eigenvalues --    3.54189   3.55391   3.57158   3.57568   3.57867
 Alpha virt. eigenvalues --    3.58266   3.59277   3.60980   3.62149   3.64643
 Alpha virt. eigenvalues --    3.68048   3.71579   3.74383   3.75595   3.75836
 Alpha virt. eigenvalues --    3.78276   3.80315   3.83642   3.85052   3.87190
 Alpha virt. eigenvalues --    3.91123   3.92358   3.93320   3.93894   3.96334
 Alpha virt. eigenvalues --    4.00692   4.01241   4.02262   4.03601   4.04093
 Alpha virt. eigenvalues --    4.04377   4.06697   4.09946   4.11178   4.12140
 Alpha virt. eigenvalues --    4.12551   4.13660   4.16196   4.17256   4.20024
 Alpha virt. eigenvalues --    4.20540   4.22924   4.24120   4.30086   4.32639
 Alpha virt. eigenvalues --    4.33362   4.33554   4.35528   4.37419   4.41364
 Alpha virt. eigenvalues --    4.42348   4.48482   4.49255   4.49644   4.51294
 Alpha virt. eigenvalues --    4.52343   4.53449   4.56253   4.57877   4.61200
 Alpha virt. eigenvalues --    4.62194   4.63758   4.65156   4.70810   4.71454
 Alpha virt. eigenvalues --    4.72468   4.74850   4.85624   4.86706   4.88359
 Alpha virt. eigenvalues --    4.91857   4.93254   4.95081   4.97564   4.98967
 Alpha virt. eigenvalues --    5.02829   5.04588   5.07223   5.08660   5.12465
 Alpha virt. eigenvalues --    5.14571   5.16540   5.16779   5.17679   5.19366
 Alpha virt. eigenvalues --    5.23880   5.24668   5.27832   5.29326   5.29954
 Alpha virt. eigenvalues --    5.33404   5.33450   5.41531   5.42365   5.44766
 Alpha virt. eigenvalues --    5.46909   5.49788   5.50027   5.52622   5.53031
 Alpha virt. eigenvalues --    5.57322   5.61893   5.65787   5.65819   5.67965
 Alpha virt. eigenvalues --    5.69145   5.72924   5.73401   5.75438   5.78033
 Alpha virt. eigenvalues --    5.78221   5.79434   5.81284   5.81563   5.85011
 Alpha virt. eigenvalues --    5.85632   5.86160   5.89845   5.90073   5.90715
 Alpha virt. eigenvalues --    5.92669   5.94303   5.96567   5.98417   6.01740
 Alpha virt. eigenvalues --    6.02524   6.03371   6.06362   6.08067   6.10166
 Alpha virt. eigenvalues --    6.14199   6.14875   6.18459   6.36030   6.37190
 Alpha virt. eigenvalues --    6.44753   6.45659   6.48454   6.49462   6.52661
 Alpha virt. eigenvalues --    6.53359   6.56365   6.57293   6.61577   6.65548
 Alpha virt. eigenvalues --    6.78211   6.91727   6.97172   7.04530   7.06526
 Alpha virt. eigenvalues --    7.07369   7.07725   7.14010   7.14414   7.15973
 Alpha virt. eigenvalues --    7.19934   7.23169   7.24931   7.27537   7.36511
 Alpha virt. eigenvalues --    7.39161   7.41514   7.41612   7.44248   7.50097
 Alpha virt. eigenvalues --    7.56773   7.60557   7.65796   7.74480   7.76689
 Alpha virt. eigenvalues --    7.87832   7.94336   8.00822   8.03585  12.77001
 Alpha virt. eigenvalues --   23.63813  23.66764  23.80892  23.81461  44.13339
 Alpha virt. eigenvalues --   44.53701  44.54578  44.61727  44.77364
          Condensed to atoms (all electrons):
               1          2          3          4          5          6
     1  Si  12.042566   0.266005   0.219407   0.274557   0.847658   0.224696
     2  O    0.266005   8.154919  -0.036662   0.002194  -0.096413  -0.027626
     3  O    0.219407  -0.036662   8.123961  -0.025646  -0.043647  -0.023045
     4  O    0.274557   0.002194  -0.025646   8.128845  -0.095993  -0.036477
     5  O    0.847658  -0.096413  -0.043647  -0.095993   8.377687  -0.043161
     6  O    0.224696  -0.027626  -0.023045  -0.036477  -0.043161   8.127381
     7  C   -0.088335   0.416765  -0.002743  -0.003360  -0.006374  -0.096404
     8  H   -0.010696  -0.050879  -0.000307   0.000044  -0.001421   0.007560
     9  H   -0.010040  -0.065265   0.013989   0.000003  -0.001484   0.011816
    10  C   -0.115909  -0.117868  -0.009320   0.004794  -0.013731   0.403098
    11  H   -0.020288   0.011034   0.000152  -0.000022  -0.000418  -0.052363
    12  H    0.025646   0.012460   0.000021  -0.000490   0.001989  -0.061478
    13  C   -0.094944  -0.003574  -0.095694   0.409441  -0.006843  -0.002911
    14  H   -0.011926   0.000063   0.012006  -0.061926  -0.001518   0.013262
    15  H   -0.009065   0.000043   0.007332  -0.051580  -0.001286  -0.000316
    16  C   -0.118340   0.005224   0.403513  -0.110784  -0.013845  -0.009525
    17  H   -0.020252  -0.000089  -0.051927   0.010392  -0.000400   0.000139
    18  H    0.026376  -0.000453  -0.061623   0.011580   0.002083  -0.000008
               7          8          9         10         11         12
     1  Si  -0.088335  -0.010696  -0.010040  -0.115909  -0.020288   0.025646
     2  O    0.416765  -0.050879  -0.065265  -0.117868   0.011034   0.012460
     3  O   -0.002743  -0.000307   0.013989  -0.009320   0.000152   0.000021
     4  O   -0.003360   0.000044   0.000003   0.004794  -0.000022  -0.000490
     5  O   -0.006374  -0.001421  -0.001484  -0.013731  -0.000418   0.001989
     6  O   -0.096404   0.007560   0.011816   0.403098  -0.052363  -0.061478
     7  C    4.843296   0.308311   0.319079   0.266651   0.001212  -0.058964
     8  H    0.308311   0.952515  -0.126153  -0.020174   0.016801  -0.026460
     9  H    0.319079  -0.126153   1.001376  -0.100716  -0.014247   0.027268
    10  C    0.266651  -0.020174  -0.100716   4.947714   0.288275   0.337702
    11  H    0.001212   0.016801  -0.014247   0.288275   0.943227  -0.122820
    12  H   -0.058964  -0.026460   0.027268   0.337702  -0.122820   0.891116
    13  C   -0.008949  -0.000197   0.000917   0.003513  -0.000762   0.000241
    14  H    0.000837   0.000011   0.000378  -0.000457  -0.000262   0.000213
    15  H   -0.000181  -0.000001   0.000012   0.000209  -0.000044   0.000007
    16  C    0.004187   0.000229  -0.000611  -0.006304   0.000407   0.000012
    17  H   -0.000683  -0.000048  -0.000247   0.000369  -0.000065   0.000019
    18  H    0.000176   0.000006   0.000221   0.000040   0.000019  -0.000010
              13         14         15         16         17         18
     1  Si  -0.094944  -0.011926  -0.009065  -0.118340  -0.020252   0.026376
     2  O   -0.003574   0.000063   0.000043   0.005224  -0.000089  -0.000453
     3  O   -0.095694   0.012006   0.007332   0.403513  -0.051927  -0.061623
     4  O    0.409441  -0.061926  -0.051580  -0.110784   0.010392   0.011580
     5  O   -0.006843  -0.001518  -0.001286  -0.013845  -0.000400   0.002083
     6  O   -0.002911   0.013262  -0.000316  -0.009525   0.000139  -0.000008
     7  C   -0.008949   0.000837  -0.000181   0.004187  -0.000683   0.000176
     8  H   -0.000197   0.000011  -0.000001   0.000229  -0.000048   0.000006
     9  H    0.000917   0.000378   0.000012  -0.000611  -0.000247   0.000221
    10  C    0.003513  -0.000457   0.000209  -0.006304   0.000369   0.000040
    11  H   -0.000762  -0.000262  -0.000044   0.000407  -0.000065   0.000019
    12  H    0.000241   0.000213   0.000007   0.000012   0.000019  -0.000010
    13  C    4.846101   0.325376   0.313220   0.268707   0.002367  -0.060344
    14  H    0.325376   0.980838  -0.121908  -0.093819  -0.016141   0.026369
    15  H    0.313220  -0.121908   0.937795  -0.019768   0.016463  -0.025686
    16  C    0.268707  -0.093819  -0.019768   4.926849   0.293213   0.342675
    17  H    0.002367  -0.016141   0.016463   0.293213   0.937844  -0.123998
    18  H   -0.060344   0.026369  -0.025686   0.342675  -0.123998   0.887282
 Mulliken charges:
               1
     1  Si   0.572884
     2  O   -0.469880
     3  O   -0.429767
     4  O   -0.455571
     5  O   -0.902882
     6  O   -0.434639
     7  C    0.105480
     8  H   -0.049141
     9  H   -0.056298
    10  C    0.132114
    11  H   -0.049837
    12  H   -0.026473
    13  C    0.104333
    14  H   -0.051397
    15  H   -0.045245
    16  C    0.127981
    17  H   -0.046956
    18  H   -0.024704
 Sum of Mulliken charges =  -2.00000
 Mulliken charges with hydrogens summed into heavy atoms:
               1
     1  Si   0.572884
     2  O   -0.469880
     3  O   -0.429767
     4  O   -0.455571
     5  O   -0.902882
     6  O   -0.434639
     7  C    0.000041
    10  C    0.055804
    13  C    0.007691
    16  C    0.056320
 Electronic spatial extent (au):  <R**2>=           1460.2078
 Charge=             -2.0000 electrons
 Dipole moment (field-independent basis, Debye):
    X=             -0.2681    Y=             -8.4659    Z=              0.1995  Tot=              8.4725
 Quadrupole moment (field-independent basis, Debye-Ang):
   XX=            -88.4418   YY=            -98.8700   ZZ=            -85.0354
   XY=              0.1448   XZ=              3.5385   YZ=              0.2266
 Traceless Quadrupole moment (field-independent basis, Debye-Ang):
   XX=              2.3406   YY=             -8.0876   ZZ=              5.7470
   XY=              0.1448   XZ=              3.5385   YZ=              0.2266
 Octapole moment (field-independent basis, Debye-Ang**2):
  XXX=             -1.8880  YYY=            -45.8009  ZZZ=              0.0609  XYY=             -0.1824
  XXY=              8.1720  XXZ=              0.2819  XZZ=             -0.7057  YZZ=              3.7338
  YYZ=              0.7487  XYZ=              5.5970
 Hexadecapole moment (field-independent basis, Debye-Ang**3):
 XXXX=          -1353.4380 YYYY=           -591.7226 ZZZZ=           -417.2371 XXXY=              0.9659
 XXXZ=             11.2509 YYYX=              1.1524 YYYZ=              1.2665 ZZZX=             -2.2183
 ZZZY=              0.3720 XXYY=           -310.6571 XXZZ=           -302.7181 YYZZ=           -152.5030
 XXYZ=              0.0850 YYXZ=              1.9445 ZZXY=              0.1517
 N-N= 7.271072257332D+02 E-N=-3.431322687165D+03  KE= 8.203116173332D+02
   1 Symmetry operations used in ECPInt.
 ECPInt:  NShTT=   13041 NPrTT=   37113 LenC2=   12496 LenP2D=   27791.
 LDataN:  DoStor=T MaxTD1= 7 Len=  274
 Calling FoFJK, ICntrl=      2127 FMM=F ISym2X=0 I1Cent= 0 IOpClX= 0 NMat=1 NMatS=1 NMatT=0.
 ***** Axes restored to original set *****
 -------------------------------------------------------------------
 Center     Atomic                   Forces (Hartrees/Bohr)
 Number     Number              X              Y              Z
 -------------------------------------------------------------------
      1       14          -0.013876147    0.133368520   -0.003662526
      2        8          -0.022013118   -0.028250150    0.009237943
      3        8           0.013935951   -0.019694622    0.007658959
      4        8           0.028743321   -0.029471155   -0.008932912
      5        8           0.001861258   -0.044335555    0.002256507
      6        8          -0.010600866   -0.020949972   -0.005953004
      7        6           0.009957281    0.013626129    0.002843900
      8        1          -0.005762112   -0.001005464    0.000684420
      9        1          -0.000548338   -0.007444032    0.001738903
     10        6           0.010337539    0.003760453   -0.000775172
     11        1          -0.001989253   -0.004752105   -0.001235036
     12        1          -0.001840339    0.001591319   -0.000619278
     13        6          -0.007176869    0.009763909   -0.004711286
     14        1           0.000595722   -0.006289045   -0.000517923
     15        1           0.005422998   -0.000975127   -0.000595024
     16        6          -0.011541607    0.003439412    0.000398937
     17        1           0.002333131   -0.004173703    0.001654352
     18        1           0.002161448    0.001791188    0.000528238
 -------------------------------------------------------------------
 Cartesian Forces:  Max     0.133368520 RMS     0.021644640

 GradGradGradGradGradGradGradGradGradGradGradGradGradGradGradGradGradGrad
 Berny optimization.
 FormGI is forming the generalized inverse of G from B-inverse, IUseBI=4.
 Internal  Forces:  Max     0.044411281 RMS     0.008451527
 Search for a local minimum.
 Step number   1 out of a maximum of  108
 All quantities printed in internal units (Hartrees-Bohrs-Radians)
 Mixed Optimization -- RFO/linear search
 Second derivative matrix not updated -- first step.
 ITU=  0
     Eigenvalues ---    0.00972   0.00976   0.02345   0.02497   0.04758
     Eigenvalues ---    0.04797   0.04955   0.04996   0.05924   0.05933
     Eigenvalues ---    0.06309   0.06323   0.08321   0.09823   0.10382
     Eigenvalues ---    0.10535   0.11109   0.11125   0.11254   0.11278
     Eigenvalues ---    0.11320   0.11455   0.12158   0.13768   0.15041
     Eigenvalues ---    0.19216   0.20526   0.21780   0.21950   0.26206
     Eigenvalues ---    0.27836   0.28433   0.30065   0.33170   0.33250
     Eigenvalues ---    0.33496   0.33520   0.33560   0.33600   0.33806
     Eigenvalues ---    0.33839   0.33923   0.33925   0.38427   0.44407
     Eigenvalues ---    0.44580   0.47028   0.47053
 RFO step:  Lambda=-3.29686960D-02 EMin= 9.71512774D-03
 Linear search not attempted -- first point.
 Maximum step size (   0.300) exceeded in Quadratic search.
    -- Step size scaled by   0.831
 Iteration  1 RMS(Cart)=  0.06416433 RMS(Int)=  0.00252249
 Iteration  2 RMS(Cart)=  0.00463208 RMS(Int)=  0.00083841
 Iteration  3 RMS(Cart)=  0.00000668 RMS(Int)=  0.00083840
 Iteration  4 RMS(Cart)=  0.00000002 RMS(Int)=  0.00083840
 Variable       Old X    -DE/DX   Delta X   Delta X   Delta X     New X
                                 (Linear)    (Quad)   (Total)
    R1        3.37627   0.02055   0.00000   0.06174   0.06256   3.43882
    R2        3.23333   0.01955   0.00000   0.04712   0.04747   3.28079
    R3        3.29836   0.02919   0.00000   0.07770   0.07814   3.37651
    R4        3.17449  -0.04441   0.00000  -0.08845  -0.08845   3.08603
    R5        3.23459   0.01869   0.00000   0.04458   0.04521   3.27980
    R6        2.61085  -0.00763   0.00000  -0.01298  -0.01321   2.59763
    R7        2.63608  -0.00482   0.00000  -0.01103  -0.01130   2.62477
    R8        2.61074  -0.00584   0.00000  -0.01013  -0.01042   2.60032
    R9        2.63312  -0.00543   0.00000  -0.01112  -0.01160   2.62151
   R10        2.07658   0.00549   0.00000   0.01231   0.01231   2.08889
   R11        2.08614   0.00662   0.00000   0.01505   0.01505   2.10119
   R12        2.89385   0.00245   0.00000  -0.00050  -0.00154   2.89231
   R13        2.07460   0.00520   0.00000   0.01160   0.01160   2.08621
   R14        2.08148   0.00240   0.00000   0.00542   0.00542   2.08690
   R15        2.08754   0.00554   0.00000   0.01262   0.01262   2.10015
   R16        2.07602   0.00515   0.00000   0.01152   0.01152   2.08754
   R17        2.89487   0.00252   0.00000  -0.00196  -0.00237   2.89251
   R18        2.07457   0.00489   0.00000   0.01091   0.01091   2.08548
   R19        2.08011   0.00275   0.00000   0.00619   0.00619   2.08630
    A1        1.57406  -0.00443   0.00000  -0.05254  -0.05461   1.51944
    A2        1.56201   0.01481   0.00000   0.09265   0.09240   1.65441
    A3        1.54164  -0.00884   0.00000  -0.03353  -0.03507   1.50657
    A4        1.56492  -0.01151   0.00000  -0.04357  -0.04406   1.52087
    A5        2.13461   0.00672   0.00000   0.03047   0.03108   2.16569
    A6        2.00824  -0.01316   0.00000  -0.05973  -0.06068   1.94756
    A7        1.58505   0.01385   0.00000   0.08509   0.08482   1.66987
    A8        1.59669  -0.00606   0.00000  -0.06147  -0.06559   1.53111
    A9        2.13964   0.00654   0.00000   0.02979   0.03003   2.16968
   A10        1.93188   0.00457   0.00000   0.02182   0.02254   1.95442
   A11        1.99541   0.00467   0.00000   0.02344   0.02359   2.01901
   A12        1.93465   0.00500   0.00000   0.02746   0.02759   1.96225
   A13        2.01639   0.00261   0.00000   0.01633   0.01718   2.03357
   A14        1.94144  -0.00010   0.00000   0.00597   0.00644   1.94789
   A15        1.94399   0.00283   0.00000   0.02267   0.02256   1.96654
   A16        1.84247   0.00126   0.00000  -0.00458  -0.00523   1.83723
   A17        1.87826  -0.00019   0.00000  -0.00611  -0.00637   1.87190
   A18        1.94472  -0.00001   0.00000  -0.00569  -0.00578   1.93895
   A19        1.91374  -0.00383   0.00000  -0.01214  -0.01179   1.90196
   A20        1.86169   0.00189   0.00000   0.00048  -0.00020   1.86149
   A21        1.92563  -0.00043   0.00000  -0.00011   0.00037   1.92600
   A22        1.92397   0.00006   0.00000   0.00588   0.00578   1.92975
   A23        1.95485  -0.00298   0.00000  -0.00926  -0.00905   1.94580
   A24        1.91792   0.00134   0.00000   0.00450   0.00458   1.92251
   A25        1.88026   0.00014   0.00000  -0.00121  -0.00127   1.87899
   A26        1.94767   0.00254   0.00000   0.01909   0.01905   1.96672
   A27        1.93666   0.00013   0.00000   0.00746   0.00783   1.94448
   A28        1.84546   0.00052   0.00000  -0.00823  -0.00887   1.83659
   A29        1.87779  -0.00029   0.00000  -0.00535  -0.00555   1.87224
   A30        1.91233  -0.00342   0.00000  -0.00960  -0.00925   1.90307
   A31        1.94480   0.00050   0.00000  -0.00326  -0.00329   1.94151
   A32        1.85803   0.00285   0.00000   0.00163   0.00101   1.85904
   A33        1.92526  -0.00060   0.00000   0.00104   0.00142   1.92668
   A34        1.92378  -0.00008   0.00000   0.00649   0.00645   1.93024
   A35        1.95558  -0.00352   0.00000  -0.01108  -0.01109   1.94449
   A36        1.91904   0.00118   0.00000   0.00425   0.00452   1.92356
   A37        1.88257   0.00018   0.00000  -0.00200  -0.00206   1.88051
   A38        3.13898  -0.01594   0.00000  -0.09611  -0.09867   3.04031
   A39        3.13678  -0.02383   0.00000  -0.14954  -0.14729   2.98948
    D1       -1.58772   0.00695   0.00000   0.02745   0.02668  -1.56104
    D2        2.56086   0.00022   0.00000  -0.00330  -0.00248   2.55838
    D3        0.42061  -0.00599   0.00000  -0.03036  -0.02920   0.39142
    D4        3.11743  -0.01594   0.00000  -0.10214  -0.10079   3.01664
    D5       -0.01935   0.00790   0.00000   0.04740   0.04651   0.02716
    D6       -1.60330  -0.00122   0.00000  -0.02580  -0.02621  -1.62951
    D7        1.57729  -0.00425   0.00000  -0.04121  -0.04188   1.53541
    D8        0.41071  -0.00621   0.00000  -0.03096  -0.02974   0.38096
    D9        2.54530   0.00038   0.00000  -0.00089  -0.00045   2.54484
   D10       -1.59753   0.00728   0.00000   0.03026   0.02799  -1.56954
   D11       -0.02842   0.00783   0.00000   0.04672   0.04570   0.01728
   D12        1.53234  -0.00075   0.00000  -0.02497  -0.02511   1.50723
   D13        3.10876  -0.01668   0.00000  -0.10355  -0.10022   3.00854
   D14       -1.57013  -0.00380   0.00000  -0.04044  -0.04084  -1.61097
   D15       -2.76475   0.00247   0.00000   0.01618   0.01599  -2.74876
   D16        1.42306   0.00087   0.00000   0.00458   0.00403   1.42710
   D17       -0.65288   0.00319   0.00000   0.00979   0.00933  -0.64355
   D18       -0.32724  -0.00579   0.00000  -0.04473  -0.04508  -0.37232
   D19       -2.45272  -0.00294   0.00000  -0.03291  -0.03308  -2.48580
   D20        1.75339  -0.00274   0.00000  -0.03516  -0.03550   1.71790
   D21        1.43254   0.00114   0.00000   0.00421   0.00373   1.43627
   D22       -2.75663   0.00257   0.00000   0.01528   0.01517  -2.74146
   D23       -0.64549   0.00357   0.00000   0.01044   0.01007  -0.63542
   D24       -0.32175  -0.00565   0.00000  -0.04468  -0.04454  -0.36629
   D25       -2.44881  -0.00296   0.00000  -0.03366  -0.03365  -2.48246
   D26        1.75981  -0.00290   0.00000  -0.03577  -0.03595   1.72386
   D27        0.61235   0.00187   0.00000   0.01693   0.01629   0.62864
   D28        2.72083   0.00081   0.00000   0.01164   0.01133   2.73216
   D29       -1.47313  -0.00004   0.00000   0.00715   0.00695  -1.46619
   D30        2.72208   0.00253   0.00000   0.01812   0.01763   2.73971
   D31       -1.45263   0.00147   0.00000   0.01283   0.01267  -1.43995
   D32        0.63660   0.00061   0.00000   0.00834   0.00829   0.64489
   D33       -1.48359  -0.00019   0.00000  -0.00091  -0.00121  -1.48479
   D34        0.62490  -0.00125   0.00000  -0.00619  -0.00617   0.61873
   D35        2.71412  -0.00211   0.00000  -0.01069  -0.01055   2.70357
   D36        0.60947   0.00177   0.00000   0.01511   0.01478   0.62425
   D37        2.71557   0.00082   0.00000   0.01097   0.01073   2.72630
   D38       -1.47426  -0.00044   0.00000   0.00410   0.00397  -1.47029
   D39       -1.49180   0.00028   0.00000   0.00231   0.00218  -1.48962
   D40        0.61430  -0.00067   0.00000  -0.00183  -0.00186   0.61243
   D41        2.70765  -0.00193   0.00000  -0.00870  -0.00863   2.69902
   D42        2.71531   0.00253   0.00000   0.01719   0.01692   2.73223
   D43       -1.46177   0.00158   0.00000   0.01305   0.01288  -1.44890
   D44        0.63158   0.00032   0.00000   0.00618   0.00611   0.63770
         Item               Value     Threshold  Converged?
 Maximum Force            0.044411     0.000450     NO 
 RMS     Force            0.008452     0.000300     NO 
 Maximum Displacement     0.263784     0.001800     NO 
 RMS     Displacement     0.065754     0.001200     NO 
 Predicted change in Energy=-1.805138D-02
 GradGradGradGradGradGradGradGradGradGradGradGradGradGradGradGradGradGrad

                          Input orientation:                          
 ---------------------------------------------------------------------
 Center     Atomic      Atomic             Coordinates (Angstroms)
 Number     Number       Type             X           Y           Z
 ---------------------------------------------------------------------
      1         14           0        0.010377    0.584087   -0.057651
      2          8           0       -1.494715    0.484797    0.960346
      3          8           0        0.817464   -0.285074    1.210138
      4          8           0        1.489799    0.356485   -1.033384
      5          8           0       -0.014189    2.212449   -0.178942
      6          8           0       -0.796113   -0.491085   -1.155772
      7          6           0       -2.220525   -0.652256    0.696040
      8          1           0       -3.280695   -0.535025    0.986189
      9          1           0       -1.828941   -1.544792    1.231172
     10          6           0       -2.083649   -0.876308   -0.811819
     11          1           0       -2.252749   -1.933651   -1.080497
     12          1           0       -2.828624   -0.269160   -1.355834
     13          6           0        2.251728   -0.701250   -0.592786
     14          1           0        1.891023   -1.679222   -0.978231
     15          1           0        3.306600   -0.595282   -0.903154
     16          6           0        2.118045   -0.685486    0.931931
     17          1           0        2.314329   -1.681879    1.363880
     18          1           0        2.844153    0.020679    1.371211
 ---------------------------------------------------------------------
                    Distance matrix (angstroms):
                    1          2          3          4          5
     1  Si   0.000000
     2  O    1.819746   0.000000
     3  O    1.736122   2.449749   0.000000
     4  O    1.786770   3.591482   2.428379   0.000000
     5  O    1.633058   2.544546   2.976376   2.537056   0.000000
     6  O    1.735595   2.432765   2.871167   2.441054   2.979043
     7  C    2.659608   1.374608   3.102982   4.216037   3.720222
     8  H    3.629485   2.056801   4.111877   5.256527   4.424500
     9  H    3.094556   2.074677   2.931005   4.444896   4.404385
    10  C    2.662042   2.310848   3.585293   3.786608   3.771421
    11  H    3.536518   3.254005   4.170255   4.387894   4.797301
    12  H    3.236238   2.777131   4.458523   4.375406   3.932493
    13  C    2.638582   4.225489   2.341122   1.376032   3.714201
    14  H    3.083321   4.461421   2.808049   2.075603   4.406110
    15  H    3.601510   5.262302   3.279943   2.055136   4.408568
    16  C    2.652046   3.797684   1.388971   2.311462   3.765433
    17  H    3.530375   4.400698   2.053122   3.252945   4.792504
    18  H    3.223253   4.382920   2.055942   2.780129   3.921346
                    6          7          8          9         10
     6  O    0.000000
     7  C    2.341822   0.000000
     8  H    3.280712   1.105391   0.000000
     9  H    2.806159   1.111901   1.785283   0.000000
    10  C    1.387246   1.530546   2.186829   2.164615   0.000000
    11  H    2.051452   2.190683   2.698892   2.382149   1.103973
    12  H    2.054355   2.174105   2.400026   3.052737   1.104341
    13  C    3.106518   4.654516   5.755735   4.548652   4.344435
    14  H    2.943449   4.556607   5.649318   4.328702   4.058372
    15  H    4.111803   5.754109   6.853152   5.641870   5.398343
    16  C    3.590071   4.345105   5.401108   4.050512   4.553165
    17  H    4.176301   4.697983   5.723829   4.147661   4.972407
    18  H    4.460839   5.153607   6.162046   4.930326   5.463830
                   11         12         13         14         15
    11  H    0.000000
    12  H    1.782687   0.000000
    13  C    4.695422   5.155474   0.000000
    14  H    4.152836   4.940236   1.111353   0.000000
    15  H    5.720931   6.160539   1.104678   1.784495   0.000000
    16  C    4.971079   5.465961   1.530648   2.165126   2.188227
    17  H    5.186191   5.986868   2.189543   2.380059   2.702728
    18  H    5.984037   6.300887   2.174727   3.052540   2.401249
                   16         17         18
    16  C    0.000000
    17  H    1.103589   0.000000
    18  H    1.104024   1.783107   0.000000
 Stoichiometry    C4H8O5Si(2-)
 Framework group  C1[X(C4H8O5Si)]
 Deg. of freedom    48
 Full point group                 C1      NOp   1
 Largest Abelian subgroup         C1      NOp   1
 Largest concise Abelian subgroup C1      NOp   1
                         Standard orientation:                         
 ---------------------------------------------------------------------
 Center     Atomic      Atomic             Coordinates (Angstroms)
 Number     Number       Type             X           Y           Z
 ---------------------------------------------------------------------
      1         14           0       -0.009412    0.578416    0.004817
      2          8           0        1.502246    0.414282   -0.994895
      3          8           0       -0.798829   -0.403210   -1.189899
      4          8           0       -1.491121    0.413635    0.989669
      5          8           0       -0.005698    2.211408   -0.009422
      6          8           0        0.804437   -0.391510    1.191907
      7          6           0        2.240673   -0.687529   -0.633943
      8          1           0        3.300851   -0.581210   -0.928234
      9          1           0        1.863072   -1.626333   -1.094801
     10          6           0        2.098483   -0.787424    0.886706
     11          1           0        2.279238   -1.816574    1.242986
     12          1           0        2.832934   -0.127738    1.381645
     13          6           0       -2.237492   -0.686683    0.635134
     14          1           0       -1.866762   -1.624599    1.102015
     15          1           0       -3.295250   -0.568845    0.931062
     16          6           0       -2.095820   -0.795780   -0.885034
     17          1           0       -2.277406   -1.827011   -1.233597
     18          1           0       -2.828260   -0.137859   -1.384574
 ---------------------------------------------------------------------
 Rotational constants (GHZ):           1.9956638           1.0311053           0.9900160
 Standard basis: def2TZVPP (5D, 7F)
 There are   492 symmetry adapted cartesian basis functions of A   symmetry.
 There are   433 symmetry adapted basis functions of A   symmetry.
   433 basis functions,   664 primitive gaussians,   492 cartesian basis functions
    44 alpha electrons       44 beta electrons
       nuclear repulsion energy       724.4257331808 Hartrees.
 NAtoms=   18 NActive=   18 NUniq=   18 SFac= 1.00D+00 NAtFMM=   60 NAOKFM=F Big=F
 Integral buffers will be    131072 words long.
 Raffenetti 2 integral format.
 Two-electron integral symmetry is turned on.
 Nuclear repulsion after empirical dispersion term =      724.4166268623 Hartrees.
 One-electron integrals computed using PRISM.
   1 Symmetry operations used in ECPInt.
 ECPInt:  NShTT=   13041 NPrTT=   37113 LenC2=   12499 LenP2D=   27781.
 LDataN:  DoStor=T MaxTD1= 6 Len=  172
 NBasis=   433 RedAO= T EigKep=  3.09D-04  NBF=   433
 NBsUse=   433 1.00D-06 EigRej= -1.00D+00 NBFU=   433
 Initial guess from the checkpoint file:  "Deprotonated_PL2_EG.chk"
 B after Tr=     0.000000    0.000000    0.000000
         Rot=    0.999989   -0.003525    0.003175    0.000248 Ang=  -0.54 deg.
 ExpMin= 7.01D-02 ExpMax= 4.48D+04 ExpMxC= 1.53D+03 IAcc=3 IRadAn=         5 AccDes= 0.00D+00
 Harris functional with IExCor= 4639 and IRadAn=       5 diagonalized for initial guess.
 HarFok:  IExCor= 4639 AccDes= 0.00D+00 IRadAn=         5 IDoV= 1 UseB2=F ITyADJ=14
 ICtDFT=  3500011 ScaDFX=  1.000000  1.000000  1.000000  1.000000
 FoFCou: FMM=F IPFlag=           0 FMFlag=      100000 FMFlg1=           0
         NFxFlg=           0 DoJE=T BraDBF=F KetDBF=T FulRan=T
         wScrn=  0.000000 ICntrl=       500 IOpCl=  0 I1Cent=   200000004 NGrid=           0
         NMat0=    1 NMatS0=      1 NMatT0=    0 NMatD0=    1 NMtDS0=    0 NMtDT0=    0
 Petite list used in FoFCou.
 Requested convergence on RMS density matrix=1.00D-08 within 128 cycles.
 Requested convergence on MAX density matrix=1.00D-06.
 Requested convergence on             energy=1.00D-06.
 No special actions if energy rises.
 Integral accuracy reduced to 1.0D-05 until final iterations.
 Initial convergence to 1.0D-05 achieved.  Increase integral accuracy.
 SCF Done:  E(RwB97XD) =  -822.973489890     A.U. after   15 cycles
            NFock= 15  Conv=0.30D-08     -V/T= 2.0034
   1 Symmetry operations used in ECPInt.
 ECPInt:  NShTT=   13041 NPrTT=   37113 LenC2=   12499 LenP2D=   27781.
 LDataN:  DoStor=T MaxTD1= 7 Len=  274
 Calling FoFJK, ICntrl=      2127 FMM=F ISym2X=0 I1Cent= 0 IOpClX= 0 NMat=1 NMatS=1 NMatT=0.
 ***** Axes restored to original set *****
 -------------------------------------------------------------------
 Center     Atomic                   Forces (Hartrees/Bohr)
 Number     Number              X              Y              Z
 -------------------------------------------------------------------
      1       14          -0.007402341    0.074529139   -0.002033396
      2        8          -0.013409919   -0.014129376    0.006224243
      3        8           0.010707607   -0.011717994    0.007089421
      4        8           0.018553694   -0.015318956   -0.006717009
      5        8           0.000919217   -0.036104969    0.002311316
      6        8          -0.008654831   -0.012867899   -0.005949708
      7        6           0.007127891    0.011212915    0.001214485
      8        1          -0.002355767   -0.001079129    0.000500582
      9        1           0.000096714   -0.001998099    0.000734391
     10        6           0.008236046    0.000699318   -0.001824915
     11        1          -0.001373296   -0.001621988   -0.001204226
     12        1          -0.001949729    0.000865162    0.000219525
     13        6          -0.006731978    0.009908579   -0.002803479
     14        1          -0.000216733   -0.001703119   -0.000438803
     15        1           0.002278591   -0.001006339   -0.000315633
     16        6          -0.009284149    0.000786995    0.001783296
     17        1           0.001461831   -0.001323481    0.001511144
     18        1           0.001997152    0.000869241   -0.000301234
 -------------------------------------------------------------------
 Cartesian Forces:  Max     0.074529139 RMS     0.012965170

 GradGradGradGradGradGradGradGradGradGradGradGradGradGradGradGradGradGrad
 Berny optimization.
 Using GEDIIS/GDIIS optimizer.
 FormGI is forming the generalized inverse of G from B-inverse, IUseBI=4.
 Internal  Forces:  Max     0.036186651 RMS     0.005060566
 Search for a local minimum.
 Step number   2 out of a maximum of  108
 All quantities printed in internal units (Hartrees-Bohrs-Radians)
 Mixed Optimization -- RFO/linear search
 Update second derivatives using D2CorX and points    1    2
 DE= -1.99D-02 DEPred=-1.81D-02 R= 1.11D+00
 TightC=F SS=  1.41D+00  RLast= 3.67D-01 DXNew= 5.0454D-01 1.1011D+00
 Trust test= 1.11D+00 RLast= 3.67D-01 DXMaxT set to 5.05D-01
 ITU=  1  0
 Use linear search instead of GDIIS.
     Eigenvalues ---    0.00983   0.00986   0.02327   0.02476   0.04771
     Eigenvalues ---    0.04795   0.05012   0.05044   0.05968   0.05977
     Eigenvalues ---    0.06348   0.06387   0.08797   0.09672   0.10319
     Eigenvalues ---    0.10470   0.11003   0.11014   0.11093   0.11211
     Eigenvalues ---    0.11244   0.11341   0.12184   0.13720   0.14880
     Eigenvalues ---    0.19421   0.20459   0.21814   0.22112   0.23517
     Eigenvalues ---    0.26983   0.28425   0.28543   0.32049   0.33193
     Eigenvalues ---    0.33349   0.33508   0.33521   0.33599   0.33815
     Eigenvalues ---    0.33849   0.33924   0.33943   0.36545   0.44430
     Eigenvalues ---    0.44589   0.47006   0.47111
 RFO step:  Lambda=-5.56992569D-03 EMin= 9.82919526D-03
 Quartic linear search produced a step of  0.83549.
 Iteration  1 RMS(Cart)=  0.05352476 RMS(Int)=  0.00212546
 Iteration  2 RMS(Cart)=  0.00277548 RMS(Int)=  0.00119031
 Iteration  3 RMS(Cart)=  0.00000432 RMS(Int)=  0.00119030
 Iteration  4 RMS(Cart)=  0.00000002 RMS(Int)=  0.00119030
 Variable       Old X    -DE/DX   Delta X   Delta X   Delta X     New X
                                 (Linear)    (Quad)   (Total)
    R1        3.43882   0.01069   0.05227   0.02234   0.07574   3.51456
    R2        3.28079   0.01286   0.03966   0.03262   0.07275   3.35354
    R3        3.37651   0.01618   0.06529   0.03482   0.10073   3.47724
    R4        3.08603  -0.03619  -0.07390  -0.09584  -0.16974   2.91629
    R5        3.27980   0.01270   0.03778   0.03288   0.07152   3.35132
    R6        2.59763  -0.00784  -0.01104  -0.02053  -0.03189   2.56574
    R7        2.62477  -0.00532  -0.00944  -0.01458  -0.02443   2.60034
    R8        2.60032  -0.00757  -0.00870  -0.02203  -0.03112   2.56921
    R9        2.62151  -0.00485  -0.00969  -0.01135  -0.02173   2.59978
   R10        2.08889   0.00228   0.01028   0.00165   0.01194   2.10082
   R11        2.10119   0.00199   0.01257  -0.00206   0.01051   2.11170
   R12        2.89231   0.00268  -0.00128   0.01074   0.00798   2.90030
   R13        2.08621   0.00206   0.00969   0.00105   0.01074   2.09695
   R14        2.08690   0.00168   0.00453   0.00443   0.00896   2.09587
   R15        2.10015   0.00172   0.01054  -0.00142   0.00912   2.10927
   R16        2.08754   0.00217   0.00962   0.00174   0.01136   2.09890
   R17        2.89251   0.00283  -0.00198   0.01034   0.00777   2.90028
   R18        2.08548   0.00205   0.00911   0.00159   0.01070   2.09618
   R19        2.08630   0.00175   0.00517   0.00411   0.00929   2.09559
    A1        1.51944  -0.00175  -0.04563   0.00211  -0.04643   1.47302
    A2        1.65441   0.00504   0.07720  -0.01022   0.06655   1.72096
    A3        1.50657  -0.00321  -0.02930   0.00785  -0.02360   1.48297
    A4        1.52087  -0.00438  -0.03681   0.00488  -0.03248   1.48839
    A5        2.16569   0.00258   0.02597   0.00075   0.02740   2.19309
    A6        1.94756  -0.00499  -0.05070  -0.00094  -0.05260   1.89496
    A7        1.66987   0.00467   0.07087  -0.01058   0.05986   1.72973
    A8        1.53111  -0.00231  -0.05480   0.00832  -0.05220   1.47891
    A9        2.16968   0.00243   0.02509   0.00016   0.02539   2.19507
   A10        1.95442   0.00027   0.01883  -0.01966   0.00032   1.95474
   A11        2.01901   0.00073   0.01971  -0.00870   0.01133   2.03033
   A12        1.96225  -0.00021   0.02305  -0.02263   0.00075   1.96300
   A13        2.03357  -0.00041   0.01435  -0.01237   0.00324   2.03681
   A14        1.94789  -0.00098   0.00538   0.00227   0.00828   1.95617
   A15        1.96654   0.00005   0.01884  -0.01618   0.00260   1.96915
   A16        1.83723   0.00321  -0.00437   0.02119   0.01586   1.85309
   A17        1.87190  -0.00004  -0.00532  -0.00628  -0.01195   1.85994
   A18        1.93895  -0.00059  -0.00483  -0.00154  -0.00660   1.93235
   A19        1.90196  -0.00169  -0.00985   0.00073  -0.00865   1.89331
   A20        1.86149   0.00077  -0.00017   0.00122   0.00018   1.86167
   A21        1.92600  -0.00066   0.00031   0.00508   0.00599   1.93199
   A22        1.92975   0.00117   0.00483   0.01121   0.01595   1.94570
   A23        1.94580  -0.00000  -0.00756   0.00990   0.00266   1.94845
   A24        1.92251  -0.00108   0.00383  -0.01840  -0.01454   1.90796
   A25        1.87899  -0.00019  -0.00106  -0.00871  -0.00994   1.86906
   A26        1.96672  -0.00007   0.01592  -0.01637  -0.00041   1.96632
   A27        1.94448  -0.00106   0.00654   0.00149   0.00852   1.95301
   A28        1.83659   0.00317  -0.00741   0.02209   0.01374   1.85034
   A29        1.87224   0.00003  -0.00464  -0.00503  -0.00994   1.86230
   A30        1.90307  -0.00165  -0.00773   0.00062  -0.00662   1.89646
   A31        1.94151  -0.00046  -0.00275  -0.00270  -0.00562   1.93589
   A32        1.85904   0.00133   0.00084   0.00165   0.00170   1.86074
   A33        1.92668  -0.00096   0.00119   0.00374   0.00538   1.93207
   A34        1.93024   0.00111   0.00539   0.01004   0.01544   1.94568
   A35        1.94449  -0.00003  -0.00927   0.01290   0.00365   1.94814
   A36        1.92356  -0.00125   0.00378  -0.01894  -0.01489   1.90867
   A37        1.88051  -0.00019  -0.00172  -0.00908  -0.01096   1.86955
   A38        3.04031  -0.00613  -0.08244   0.00699  -0.07891   2.96141
   A39        2.98948  -0.00759  -0.12306   0.02039  -0.09938   2.89011
    D1       -1.56104   0.00246   0.02229   0.00547   0.02639  -1.53465
    D2        2.55838   0.00002  -0.00207   0.00452   0.00367   2.56205
    D3        0.39142  -0.00214  -0.02439   0.00370  -0.01905   0.37237
    D4        3.01664  -0.00535  -0.08421   0.00826  -0.07381   2.94283
    D5        0.02716   0.00224   0.03886  -0.01213   0.02557   0.05273
    D6       -1.62951  -0.00046  -0.02190  -0.00265  -0.02517  -1.65468
    D7        1.53541  -0.00162  -0.03499  -0.00114  -0.03710   1.49831
    D8        0.38096  -0.00210  -0.02485   0.00789  -0.01526   0.36570
    D9        2.54484   0.00015  -0.00038   0.00899   0.00929   2.55414
   D10       -1.56954   0.00247   0.02339   0.00971   0.02966  -1.53988
   D11        0.01728   0.00243   0.03818  -0.00749   0.02932   0.04660
   D12        1.50723  -0.00027  -0.02098  -0.00196  -0.02320   1.48403
   D13        3.00854  -0.00557  -0.08374   0.00668  -0.07216   2.93638
   D14       -1.61097  -0.00143  -0.03412  -0.00045  -0.03518  -1.64615
   D15       -2.74876   0.00051   0.01336  -0.01669  -0.00372  -2.75247
   D16        1.42710   0.00123   0.00337   0.00128   0.00395   1.43104
   D17       -0.64355   0.00124   0.00780  -0.00412   0.00301  -0.64054
   D18       -0.37232  -0.00068  -0.03766   0.01410  -0.02383  -0.39615
   D19       -2.48580  -0.00091  -0.02764  -0.00465  -0.03241  -2.51821
   D20        1.71790  -0.00076  -0.02966  -0.00213  -0.03215   1.68575
   D21        1.43627   0.00140   0.00311  -0.00113   0.00135   1.43762
   D22       -2.74146   0.00062   0.01268  -0.01807  -0.00567  -2.74713
   D23       -0.63542   0.00145   0.00841  -0.00687   0.00095  -0.63447
   D24       -0.36629  -0.00078  -0.03721   0.01045  -0.02639  -0.39267
   D25       -2.48246  -0.00087  -0.02811  -0.00522  -0.03320  -2.51566
   D26        1.72386  -0.00096  -0.03003  -0.00472  -0.03491   1.68895
   D27        0.62864   0.00126   0.01361   0.00836   0.02117   0.64981
   D28        2.73216   0.00094   0.00947   0.02107   0.03017   2.76233
   D29       -1.46619  -0.00001   0.00580   0.00441   0.01003  -1.45616
   D30        2.73971   0.00172   0.01473   0.02325   0.03730   2.77701
   D31       -1.43995   0.00139   0.01059   0.03596   0.04630  -1.39365
   D32        0.64489   0.00045   0.00693   0.01930   0.02616   0.67104
   D33       -1.48479   0.00027  -0.00101   0.01510   0.01371  -1.47108
   D34        0.61873  -0.00006  -0.00515   0.02781   0.02271   0.64144
   D35        2.70357  -0.00100  -0.00882   0.01114   0.00257   2.70613
   D36        0.62425   0.00136   0.01235   0.00878   0.02071   0.64496
   D37        2.72630   0.00101   0.00897   0.02178   0.03049   2.75679
   D38       -1.47029  -0.00007   0.00331   0.00624   0.00946  -1.46083
   D39       -1.48962   0.00052   0.00182   0.01526   0.01691  -1.47271
   D40        0.61243   0.00017  -0.00156   0.02826   0.02668   0.63912
   D41        2.69902  -0.00092  -0.00721   0.01272   0.00566   2.70468
   D42        2.73223   0.00179   0.01414   0.02267   0.03640   2.76864
   D43       -1.44890   0.00144   0.01076   0.03568   0.04617  -1.40272
   D44        0.63770   0.00036   0.00511   0.02013   0.02515   0.66284
         Item               Value     Threshold  Converged?
 Maximum Force            0.036187     0.000450     NO 
 RMS     Force            0.005061     0.000300     NO 
 Maximum Displacement     0.216876     0.001800     NO 
 RMS     Displacement     0.054502     0.001200     NO 
 Predicted change in Energy=-8.212436D-03
 GradGradGradGradGradGradGradGradGradGradGradGradGradGradGradGradGradGrad

                          Input orientation:                          
 ---------------------------------------------------------------------
 Center     Atomic      Atomic             Coordinates (Angstroms)
 Number     Number       Type             X           Y           Z
 ---------------------------------------------------------------------
      1         14           0        0.004109    0.698853   -0.064104
      2          8           0       -1.516029    0.480657    0.984957
      3          8           0        0.809272   -0.228572    1.216859
      4          8           0        1.514250    0.350150   -1.055948
      5          8           0       -0.016617    2.237327   -0.183435
      6          8           0       -0.787535   -0.437531   -1.171813
      7          6           0       -2.172910   -0.671687    0.695056
      8          1           0       -3.241386   -0.631562    0.999426
      9          1           0       -1.730018   -1.562786    1.203501
     10          6           0       -2.047561   -0.865144   -0.822304
     11          1           0       -2.196570   -1.925551   -1.113291
     12          1           0       -2.833740   -0.273251   -1.333825
     13          6           0        2.206683   -0.722501   -0.588641
     14          1           0        1.791265   -1.693312   -0.950314
     15          1           0        3.272395   -0.695403   -0.900335
     16          6           0        2.081512   -0.673968    0.940238
     17          1           0        2.256110   -1.669881    1.396424
     18          1           0        2.850091    0.012189    1.350386
 ---------------------------------------------------------------------
                    Distance matrix (angstroms):
                    1          2          3          4          5
     1  Si   0.000000
     2  O    1.859827   0.000000
     3  O    1.774618   2.442091   0.000000
     4  O    1.840074   3.655805   2.448993   0.000000
     5  O    1.543234   2.588294   2.953570   2.581912   0.000000
     6  O    1.773440   2.454675   2.880835   2.435586   2.953993
     7  C    2.682185   1.357731   3.059745   4.207768   3.726085
     8  H    3.665288   2.052827   4.076458   5.272987   4.475357
     9  H    3.119139   2.066206   2.868501   4.392004   4.393198
    10  C    2.688923   2.315146   3.567199   3.770680   3.762740
    11  H    3.582077   3.264294   4.164663   4.353422   4.790238
    12  H    3.257386   2.771549   4.447417   4.401234   3.944944
    13  C    2.673334   4.216916   2.335927   1.359566   3.723954
    14  H    3.114763   4.405634   2.793996   2.064857   4.393912
    15  H    3.650332   5.278868   3.281375   2.051456   4.464578
    16  C    2.684947   3.778552   1.376042   2.314165   3.760375
    17  H    3.579882   4.361554   2.050112   3.262669   4.788269
    18  H    3.251447   4.406360   2.059306   2.772929   3.939780
                    6          7          8          9         10
     6  O    0.000000
     7  C    2.336513   0.000000
     8  H    3.282272   1.111707   0.000000
     9  H    2.792237   1.117464   1.786913   0.000000
    10  C    1.375745   1.534770   2.190543   2.165970   0.000000
    11  H    2.050123   2.200648   2.688796   2.390982   1.109657
    12  H    2.059173   2.170669   2.395542   3.052724   1.109084
    13  C    3.063762   4.564131   5.675534   4.406298   4.263043
    14  H    2.876848   4.411989   5.500580   4.129817   3.929229
    15  H    4.077159   5.674256   6.785464   5.495690   5.323235
    16  C    3.570446   4.261482   5.323396   3.922635   4.493590
    17  H    4.168729   4.593967   5.608760   3.992231   4.908355
    18  H    4.449276   5.111525   6.135445   4.845567   5.429300
                   11         12         13         14         15
    11  H    0.000000
    12  H    1.784577   0.000000
    13  C    4.594694   5.114977   0.000000
    14  H    3.997915   4.853280   1.116178   0.000000
    15  H    5.609651   6.136042   1.110689   1.786636   0.000000
    16  C    4.907690   5.430620   1.534762   2.167370   2.192344
    17  H    5.117655   5.942341   2.200103   2.392448   2.693983
    18  H    5.940819   6.292250   2.171076   3.053370   2.396826
                   16         17         18
    16  C    0.000000
    17  H    1.109250   0.000000
    18  H    1.108940   1.784459   0.000000
 Stoichiometry    C4H8O5Si(2-)
 Framework group  C1[X(C4H8O5Si)]
 Deg. of freedom    48
 Full point group                 C1      NOp   1
 Largest Abelian subgroup         C1      NOp   1
 Largest concise Abelian subgroup C1      NOp   1
                         Standard orientation:                         
 ---------------------------------------------------------------------
 Center     Atomic      Atomic             Coordinates (Angstroms)
 Number     Number       Type             X           Y           Z
 ---------------------------------------------------------------------
      1         14           0       -0.004669    0.666893    0.001471
      2          8           0        1.526737    0.380229   -1.014194
      3          8           0       -0.788104   -0.374514   -1.203092
      4          8           0       -1.518996    0.384023    1.007787
      5          8           0       -0.002862    2.210093   -0.008615
      6          8           0        0.790736   -0.362778    1.206542
      7          6           0        2.194506   -0.735577   -0.623688
      8          1           0        3.264983   -0.707966   -0.922368
      9          1           0        1.766338   -1.671553   -1.058826
     10          6           0        2.058569   -0.802650    0.903579
     11          1           0        2.217439   -1.833009    1.283658
     12          1           0        2.833445   -0.160319    1.369461
     13          6           0       -2.194915   -0.732475    0.627018
     14          1           0       -1.771305   -1.664354    1.072000
     15          1           0       -3.263473   -0.692456    0.927374
     16          6           0       -2.057372   -0.810771   -0.899561
     17          1           0       -2.216497   -1.843502   -1.271825
     18          1           0       -2.830383   -0.170934   -1.371587
 ---------------------------------------------------------------------
 Rotational constants (GHZ):           1.9421838           1.0434262           0.9979297
 Standard basis: def2TZVPP (5D, 7F)
 There are   492 symmetry adapted cartesian basis functions of A   symmetry.
 There are   433 symmetry adapted basis functions of A   symmetry.
   433 basis functions,   664 primitive gaussians,   492 cartesian basis functions
    44 alpha electrons       44 beta electrons
       nuclear repulsion energy       723.4885736439 Hartrees.
 NAtoms=   18 NActive=   18 NUniq=   18 SFac= 1.00D+00 NAtFMM=   60 NAOKFM=F Big=F
 Integral buffers will be    131072 words long.
 Raffenetti 2 integral format.
 Two-electron integral symmetry is turned on.
 Nuclear repulsion after empirical dispersion term =      723.4793633681 Hartrees.
 One-electron integrals computed using PRISM.
   1 Symmetry operations used in ECPInt.
 ECPInt:  NShTT=   13041 NPrTT=   37113 LenC2=   12512 LenP2D=   27796.
 LDataN:  DoStor=T MaxTD1= 6 Len=  172
 NBasis=   433 RedAO= T EigKep=  3.11D-04  NBF=   433
 NBsUse=   433 1.00D-06 EigRej= -1.00D+00 NBFU=   433
 Initial guess from the checkpoint file:  "Deprotonated_PL2_EG.chk"
 B after Tr=     0.000000   -0.000000    0.000000
         Rot=    0.999997    0.000406    0.002241    0.000404 Ang=   0.27 deg.
 ExpMin= 7.01D-02 ExpMax= 4.48D+04 ExpMxC= 1.53D+03 IAcc=3 IRadAn=         5 AccDes= 0.00D+00
[...]
 742,0.09204,-0.1705332,0.2005044,-0.0985097,0.1262012,-0.1534866,0.058
 5229,-0.1265058,0.8000495,-0.1305238,-0.0654021,-0.332807,0.7894115,0.
 0429277,0.1689338,-0.1426825,0.313528,-0.0408802,-0.1486204,-0.0480916
 ,-0.0160508,-0.4361456,-0.1315457,-0.0155886,-0.1053262,-0.094678,-0.5
 736894,0.1036341,0.1596478,0.0455127,-0.0251719,-0.0028169,0.1041821,-
 0.0254034,-0.0516737,0.9892881,-0.1732774,0.2258,-0.1504051,0.6063371,
 -0.1281023,-0.07524,0.0057496,0.2466834,-0.0938834,0.0885126,-0.050134
 9,0.2020889,-0.3700737,0.2220738,-0.0860218,0.1349738,-0.1068638,-0.36
 26687,-0.123945,-0.150142,-0.228374,-0.1367132,-0.1291452,-0.1176831,-
 0.0608771,-0.0962538\Polar=116.9164229,0.4307065,99.7591402,2.7131345,
 -0.9105461,88.0914502\Quadrupole=-0.1686676,-3.7225414,3.891209,0.2916
 399,3.0688478,0.6561188\PG=C01 [X(C4H8O5Si1)]\NImag=0\\0.25169002,-0.0
 0072464,0.64101210,0.05338592,-0.03253129,0.22971298,-0.01902544,0.001
 35925,-0.00417493,0.21288314,0.00865930,-0.04105193,-0.01060673,0.1345
 3332,0.34258722,-0.00415576,-0.00539242,-0.03621183,0.00654041,0.08188
 889,0.14854030,-0.04477548,0.01350100,-0.01422847,-0.03991837,0.005729
 72,-0.00606248,0.39978901,0.00865821,-0.05249054,0.02129560,0.01473344
 ,0.00400031,0.00199055,-0.12616229,0.13824571,-0.01110397,0.01955013,-
 0.06866165,0.00128599,0.00053764,0.00429081,-0.04010245,-0.02932873,0.
 19790103,-0.01895263,-0.00147824,-0.00411324,-0.00128045,-0.00138891,0
 .00272767,0.00979987,-0.01205761,0.02374549,0.21971049,-0.00864958,-0.
 03869577,0.01085491,0.00166889,0.00415341,-0.00110063,0.00083531,0.009
 11784,-0.00310389,-0.13426414,0.30538134,-0.00280331,0.00566813,-0.038
 90076,0.00246071,0.00064694,0.00094011,-0.00062337,0.01587136,-0.02556
 904,0.03031490,-0.10721269,0.17917020,-0.04620450,0.00421856,-0.005466
 11,-0.00809750,-0.02136895,0.00871674,0.00413342,0.00703148,-0.0016805
 1,-0.00902206,0.02267953,0.00529921,0.05257650,0.00427750,-0.40933380,
 0.02898047,-0.01377442,-0.01428131,0.00669298,0.00511479,-0.00614787,0
 .00326384,0.01555770,-0.01641039,-0.00321894,-0.00622839,0.45372605,-0
 .00486785,0.02899521,-0.05021722,0.01103982,0.01571387,0.00346123,-0.0
 0552349,0.01168996,0.00239844,0.00902976,-0.01216688,0.00651267,-0.013
 38124,-0.03365408,0.03988647,-0.04421531,-0.01529540,-0.01137584,0.009
 48135,-0.00084273,-0.00003363,-0.00257229,-0.00195735,-0.00920032,-0.0
 3937529,-0.00770167,-0.00493565,0.00444869,-0.00561513,-0.00438439,0.3
 9371354,-0.01002211,-0.06004375,-0.02310434,0.01572762,0.00659616,-0.0
 2101708,0.00027968,0.00474729,0.00016842,-0.01540659,0.00306032,-0.001
 97573,-0.00691563,-0.00861837,-0.01006571,0.12418193,0.15499718,-0.009
 11702,-0.02130695,-0.06177591,0.02148495,-0.00149498,-0.02268804,-0.00
 934813,-0.00211558,-0.00582851,0.00371588,-0.00032065,0.00468226,-0.00
 049804,-0.00153818,0.00454741,-0.06095746,0.03558748,0.18731182,-0.022
 68993,-0.01630411,0.01338441,-0.13105364,-0.07552359,-0.01024119,0.002
 32016,-0.00075759,-0.00016592,0.00006303,-0.00019207,-0.00135110,0.001
 59071,0.00061673,-0.00011452,-0.02731246,-0.01398982,0.03674067,0.5586
 9149,-0.03753193,-0.00277258,0.02404867,-0.08536110,-0.22118478,-0.040
 21516,0.00987114,-0.00797036,0.00075271,0.00149976,-0.00189273,-0.0008
 4737,0.00405423,0.00404255,-0.00300360,-0.00697862,-0.00817896,-0.0031
 5095,0.00789274,0.50110626,-0.00088132,0.00726941,0.00887596,-0.026105
 81,-0.05356605,-0.08813265,0.00129660,0.00025910,-0.00095726,-0.001031
 23,-0.00038384,-0.00076692,0.00320123,0.00308234,-0.00293553,0.0219537
 6,-0.00296208,-0.02536585,-0.02328963,-0.02828807,0.45446584,0.0067557
 1,0.00063175,-0.00605291,-0.02390254,-0.02252103,0.00299323,-0.0025544
 6,0.00044381,-0.00019370,-0.00071309,0.00030441,0.00037002,-0.00116632
 ,-0.00222095,0.00118196,0.00144220,-0.00023014,0.00241626,-0.22353371,
 0.02198804,0.05949936,0.26345262,0.00343741,-0.00242330,-0.00488475,-0
 .04077064,-0.00864639,0.00983853,-0.00137487,0.00133983,-0.00021900,-0
 .00014152,0.00029489,0.00012939,-0.00088207,-0.00126263,0.00115045,0.0
 0039637,0.00223441,-0.00090790,0.02253453,-0.04844910,-0.00546953,-0.0
 0683505,0.05655239,-0.00075057,-0.00162330,-0.00292571,-0.00982429,-0.
 00004195,0.00652273,0.00011566,-0.00036451,0.00052563,0.00067934,-0.00
 001612,0.00033337,0.00004608,0.00027614,0.00045935,0.00294761,0.001415
 29,-0.00690086,0.05418175,-0.00459143,-0.06810840,-0.06428181,0.003274
 89,0.06833146,-0.00073031,-0.00138593,0.00096879,0.01330324,-0.0149020
 6,0.00771578,0.00097916,-0.00095596,-0.00010054,0.00028971,-0.00008243
 ,-0.00004981,-0.00023979,0.00007843,-0.00002180,0.00184611,0.00026858,
 -0.00057036,-0.09535477,0.06907476,-0.04078412,-0.01681825,0.02158101,
 -0.01314779,0.09587450,0.01101799,-0.00401364,-0.00439869,-0.00770134,
 -0.05012535,0.00777470,-0.00131411,0.00295082,-0.00112671,-0.00101299,
 0.00105661,-0.00020751,-0.00313596,-0.00134810,0.00132122,-0.00091879,
 0.00161073,0.00123454,0.06885851,-0.14433390,0.06885446,0.00645466,-0.
 00059933,0.00256567,-0.07279397,0.19075828,-0.00191841,0.00049617,0.00
 013399,0.00616456,-0.00172901,0.01134362,0.00057400,-0.00097556,0.0003
 5083,0.00051777,-0.00030591,0.00016645,0.00040727,0.00012097,0.0000451
 1,0.00141494,-0.00152053,0.00287327,-0.03857918,0.06128711,-0.09241301
 ,0.00521837,-0.00660946,0.00482492,0.04620688,-0.07487258,0.09688193,-
 0.02414541,-0.02491865,-0.02542777,-0.01312274,-0.01283685,-0.00629249
 ,0.00223116,0.00039021,0.00421594,0.00188299,-0.00134325,-0.00023994,0
 .00068008,0.00553334,0.00419117,-0.22817419,-0.05834829,0.03288945,-0.
 06514022,0.01062826,0.00641597,-0.00515560,0.00309891,0.03161845,-0.00
 079458,0.00140844,-0.02022939,0.50798429,-0.01628043,-0.01150315,-0.00
 683446,-0.01939364,-0.02657749,-0.03872127,0.00112479,0.00016383,0.001
 54617,0.00083853,0.00101191,-0.00015393,0.00122154,0.00011620,0.000712
 44,-0.05034553,-0.09850760,0.00230587,0.00495261,-0.06439137,0.0080623
 3,0.00286590,0.00053582,-0.00079333,0.00036783,0.00071940,0.02437744,0
 .00586117,0.55926084,-0.00686200,0.00043135,0.00837749,-0.00479897,-0.
 02800926,-0.02408073,0.00061057,-0.00010972,-0.00150681,-0.00352480,-0
 .00063975,0.00114316,0.00018162,-0.00038671,-0.00170959,0.05365678,0.0
 1791145,-0.09223154,-0.00541923,0.00062107,-0.16754689,-0.00329835,0.0
 0305650,-0.00352279,0.00082324,-0.00191486,-0.01790463,0.03984961,0.01
 397303,0.46208969,0.00128556,0.00095217,0.00617113,0.00213517,0.000059
 33,0.00074177,-0.00025081,0.00023063,-0.00056168,-0.00170039,0.0006337
 9,-0.00015986,-0.00031303,-0.00137390,-0.00099233,-0.02149789,-0.03990
 104,-0.00921211,0.00157793,0.00197947,-0.00240192,-0.00019095,-0.00042
 538,-0.00088025,0.00012183,-0.00004347,-0.00030023,-0.04642384,-0.0092
 0228,-0.00572166,0.06130876,0.00505765,0.00192782,0.00449613,-0.001330
 20,0.00089348,-0.00315559,-0.00113729,0.00054200,-0.00061044,-0.001772
 86,0.00074938,-0.00003945,-0.00099300,-0.00142970,-0.00055702,-0.02121
 486,-0.01001290,-0.00132670,0.00163416,-0.00518068,0.00441342,0.000357
 56,-0.00015965,-0.00127602,-0.00072494,0.00193902,-0.00087553,-0.01152
 917,-0.23590185,-0.06056994,0.02898344,0.26782759,0.00212821,-0.000370
 04,-0.00268198,-0.00229989,-0.00280962,-0.00774737,-0.00061089,0.00031
 307,0.00003734,0.00000762,0.00004786,0.00011702,-0.00048173,-0.0004218
 2,0.00056191,0.00434706,0.01035376,0.00617021,-0.00494843,-0.03114764,
 -0.00089405,0.00150947,0.00067356,-0.00062935,-0.00075114,0.00110352,0
 .00117568,-0.00625900,-0.05702462,-0.06899862,0.00756947,0.06560627,0.
 06822576,0.00109311,0.00873031,0.00635853,0.00132568,-0.00073705,-0.00
 088996,-0.00088756,-0.00035091,-0.00143026,-0.00250691,-0.00082770,-0.
 00008889,0.00052454,-0.00180428,-0.00024197,-0.04976703,0.00295968,-0.
 00912338,0.00083305,0.00093749,0.00225990,0.00184229,-0.00028997,-0.00
 067610,0.00136932,-0.00017764,0.00038004,-0.12821396,0.07979000,-0.065
 71586,0.00364104,0.00222347,-0.00031069,0.16976671,-0.00177212,-0.0006
 6440,-0.00120939,0.00049700,0.00205083,0.00039496,0.00018074,-0.000009
 97,0.00002523,0.00011053,-0.00004133,-0.00002782,0.00028896,0.00063164
 ,0.00026191,-0.00682149,0.01508040,-0.00687273,-0.00042474,-0.00128414
 ,-0.00117083,-0.00114838,0.00038418,0.00092292,-0.00093376,0.00145928,
 0.00039754,0.08114766,-0.12606319,0.05609359,0.01859655,-0.02051487,0.
 01375390,-0.08958470,0.12898357,0.00035409,0.00088083,0.00018500,0.001
 70300,-0.00162124,0.00306602,-0.00038874,-0.00026670,0.00010757,-0.000
 06797,0.00003503,0.00006905,0.00009915,-0.00052118,0.00007553,0.003862
 17,-0.00622098,0.01081545,-0.02066902,0.02427599,-0.01677713,0.0009241
 1,0.00011867,0.00123492,-0.00022003,-0.00059005,-0.00714789,-0.0604485
 1,0.05293459,-0.09456160,0.00550879,-0.00633977,0.00468616,0.06915615,
 -0.06256296,0.09832371,-0.02403783,0.01782650,0.01120948,0.00009831,0.
 00001808,-0.00138984,-0.02790175,0.01916486,0.03401587,-0.13497369,0.0
 7471186,-0.02348331,0.00169738,-0.00068369,-0.00006770,0.00253314,0.00
 098347,-0.00030128,0.00006114,0.00003464,0.00017972,0.00029448,-0.0000
 2693,-0.00021717,0.00000627,0.00012219,-0.00002560,-0.00137099,-0.0009
 3031,0.00058076,0.00023591,0.00029951,0.00000926,0.00084761,-0.0001248
 1,0.00005660,0.55923916,0.03646326,-0.00605686,-0.02121803,-0.00159770
 ,-0.00170959,0.00096123,0.00989078,-0.00693157,0.00110118,0.08188514,-
 0.19924626,0.05800634,-0.00353934,0.00374650,0.00191164,-0.00927257,-0
 .00816671,0.00038809,-0.00004471,0.00163712,-0.00017971,-0.00029957,-0
 .00021395,0.00030430,0.00023758,-0.00080810,0.00041754,-0.00008863,0.0
 0093794,-0.00061582,-0.00098769,-0.00106256,-0.00012820,-0.00076830,-0
 .00009048,-0.00002279,-0.01016177,0.50834755,-0.00665177,-0.00484247,0
 .01348280,-0.00079404,0.00050895,-0.00098419,0.02056506,0.00056356,-0.
 02601202,-0.04103638,0.07093876,-0.10611531,0.00389991,-0.00407755,-0.
 00274592,0.00282264,0.00093617,-0.00097929,0.00018391,-0.00002572,0.00
 033674,0.00002127,-0.00001270,-0.00016242,-0.00002319,0.00024802,-0.00
 011556,-0.00064927,-0.00034280,0.00056856,0.00022720,0.00028036,-0.000
 02289,0.00041612,-0.00002660,-0.00002790,-0.02246812,0.01903920,0.4468
 6095,-0.00049263,0.00159342,0.00061444,0.00026232,0.00005276,-0.000063
 99,0.00182596,-0.00035130,-0.00049261,0.01267842,0.01749268,0.00518624
 ,-0.00031694,-0.00005124,0.00001769,0.00092063,0.00087466,-0.00026980,
 0.00001481,-0.00021635,0.00001795,0.00003854,0.00002455,-0.00004771,-0
 .00005257,0.00008654,-0.00005945,-0.00018291,-0.00048583,0.00007078,0.
 00011262,0.00015466,0.00002283,0.00021769,0.00002912,-0.00000163,-0.09
 188964,-0.07309086,-0.02782134,0.09222845,-0.01110310,-0.00353424,0.00
 498807,0.00106062,0.00114232,0.00005116,0.00113122,0.00170456,-0.00105
 830,0.01010569,-0.04886958,0.00214165,0.00318858,-0.00146033,-0.001068
 85,0.00132801,0.00327237,0.00065528,-0.00010269,-0.00090351,-0.0001216
 7,0.00011032,0.00013193,-0.00004186,-0.00010562,0.00037248,-0.00018012
 ,0.00044586,-0.00013245,-0.00001109,0.00033025,0.00032937,0.00007638,-
 0.00001548,0.00005648,-0.00000822,-0.07252860,-0.16716090,-0.05796332,
 0.07644959,0.21579447,-0.00014033,0.00004977,-0.00058607,0.00034571,0.
 00016152,0.00010787,0.00121173,0.00174108,0.00279283,0.00456948,0.0116
 3119,0.01071144,-0.00009993,0.00013208,0.00023615,0.00034215,0.0005212
 3,0.00008663,0.00000143,-0.00029171,-0.00002836,0.00000421,0.00003672,
 -0.00002259,-0.00004765,0.00010787,-0.00006846,0.00002239,-0.00017494,
 -0.00016117,0.00006181,0.00006535,0.00002928,0.00000248,0.00002075,0.0
 0000016,-0.02586569,-0.05035675,-0.07316655,0.03261390,0.05699740,0.07
 559463,0.00685996,-0.00137716,-0.00600529,-0.00071006,-0.00026616,0.00
 041868,0.00143682,0.00059294,0.00234212,-0.02542661,0.02231485,-0.0003
 8361,-0.00124654,0.00238429,0.00083566,-0.00257324,-0.00056493,-0.0001
 1605,0.00028649,0.00031215,-0.00002818,-0.00029451,-0.00002351,0.00009
 887,0.00004191,-0.00011043,0.00002315,0.00110696,0.00011760,-0.0003039
 7,-0.00021886,-0.00035956,-0.00001279,-0.00038918,0.00011563,-0.000076
 75,-0.22261836,-0.01652493,0.06250918,-0.01610253,-0.00593668,0.006039
 94,0.26328809,-0.00329942,-0.00153653,0.00449905,0.00022337,0.00027782
 ,-0.00011053,0.00006611,0.00193704,-0.00045904,0.03828787,-0.00830252,
 -0.00729834,0.00088299,-0.00136294,-0.00082390,0.00127484,0.00143106,0
 .00007046,0.00000539,-0.00025118,0.00002744,0.00003062,0.00004153,-0.0
 0003115,-0.00003410,0.00012539,-0.00006047,0.00012209,0.00014635,0.000
 15100,0.00016551,0.00011943,0.00000692,0.00003889,0.00000263,-0.000002
 57,-0.01791619,-0.04810723,0.00368668,-0.02378195,-0.00054154,0.007560
 90,0.00159962,0.05577364,-0.00024979,0.00137525,-0.00392275,0.00064914
 ,0.00004199,0.00034797,0.00302208,-0.00276441,-0.00659858,-0.01618711,
 0.00223143,0.00770922,-0.00009209,0.00002412,0.00063836,-0.00010482,0.
 00022058,0.00045462,-0.00021229,-0.00029483,-0.00011734,0.00009381,0.0
 0003007,0.00001961,-0.00004364,0.00001672,-0.00001942,0.00007610,-0.00
 008492,-0.00005406,0.00000399,0.00003103,0.00003288,0.00000861,-0.0000
 0297,0.00001846,0.05738051,0.00267600,-0.06944591,-0.00945325,-0.00203
 367,0.00405898,-0.06492524,-0.00284185,0.06933961,-0.02508779,0.020171
 94,-0.02924760,0.00187291,0.00130745,-0.00045741,-0.23087502,0.0597003
 0,0.02346447,-0.01389996,0.01177791,-0.00920366,0.00084053,-0.00476862
 ,0.00503807,0.00225960,0.00034722,0.00426103,-0.00139651,-0.00007791,-
 0.00065727,0.00111228,-0.00008454,0.00009051,-0.00018420,-0.00043712,0
 .00008832,-0.00207291,-0.00087003,-0.00019298,0.00028694,0.00068210,0.
 00021704,0.00062412,-0.00022495,0.00031711,-0.06477437,-0.00942086,0.0
 0839323,-0.00071115,-0.00454406,-0.01911376,-0.00505359,0.00184182,0.0
 3169601,0.50815757,0.01461980,-0.00913207,0.00906751,-0.00138615,0.001
 14023,0.00014365,0.05514778,-0.09867895,-0.00037355,0.01852228,-0.0152
 8112,0.03715220,-0.00115573,-0.00012797,-0.00086468,-0.00095995,-0.000
 12291,-0.00166819,0.00095349,0.00110875,0.00024205,-0.00014069,0.00012
 365,0.00005817,0.00048965,-0.00010547,0.00016799,0.00076632,0.00044483
 ,-0.00002755,-0.00009944,-0.00029301,-0.00010774,-0.00022472,-0.000005
 21,-0.00008341,-0.00571789,-0.06874630,-0.02383588,-0.00022027,-0.0033
 9794,-0.02720658,-0.00347930,0.00004075,0.00099437,-0.00059090,0.55235
 531,-0.00935775,0.00226613,0.00695542,-0.00336445,0.00055208,0.0010211
 4,0.04561933,-0.01546175,-0.08936127,-0.00852982,0.02647959,-0.0345868
 5,0.00036719,0.00012695,-0.00162474,0.00077895,-0.00009907,-0.00124832
 ,0.00041555,0.00054459,0.00042849,-0.00027977,-0.00018801,-0.00003834,
 -0.00000739,0.00000256,-0.00018947,-0.00032539,-0.00001548,0.00022046,
 0.00001634,0.00000924,-0.00003885,0.00010468,-0.00002472,-0.00004282,-
 0.00436300,-0.01669667,-0.16355848,0.00085381,-0.00040957,-0.01385850,
 -0.00270673,-0.00370834,-0.00312305,0.04089607,-0.02755178,0.46874327,
 0.00141961,0.00005645,0.00636137,-0.00172372,-0.00071349,-0.00005146,-
 0.02296430,0.03762019,-0.01548014,0.00210659,0.00007449,0.00067848,-0.
 00037046,0.00121906,-0.00121876,-0.00026965,-0.00033933,-0.00052909,0.
 00021735,0.00104338,0.00006917,-0.00022321,-0.00017109,0.00003191,0.00
 012451,-0.00032105,0.00011629,0.00030003,0.00011486,-0.00000114,-0.000
 05545,-0.00013321,-0.00005722,-0.00005935,0.00001259,0.00000151,0.0016
 7722,-0.00220947,-0.00196349,0.00010689,-0.00005053,-0.00031924,-0.000
 19386,0.00027571,-0.00096631,-0.04700593,0.01234603,-0.00922587,0.0627
 9512,-0.00466129,0.00104301,-0.00495836,0.00169084,0.00075952,-0.00006
 449,0.02136871,-0.00958778,0.00368131,0.00096042,0.00163755,0.00165798
 ,0.00092758,-0.00117259,0.00081572,0.00100574,0.00059367,0.00050882,-0
 .00026313,-0.00104359,-0.00011074,0.00034466,0.00011598,-0.00004365,-0
 .00015381,0.00028880,-0.00010622,-0.00062473,-0.00028373,0.00002949,0.
 00011475,0.00026732,0.00007993,0.00018162,-0.00002995,0.00002815,-0.00
 234977,-0.00098095,-0.00445944,0.00055458,0.00189780,0.00075227,-0.000
 11157,-0.00007292,0.00116399,0.01456238,-0.21263744,0.08360475,-0.0319
 2608,0.24071290,0.00290616,-0.00017815,-0.00193516,-0.00026814,-0.0001
 5257,0.00013489,0.00115622,-0.00763173,0.00721052,-0.00253638,0.001239
 42,-0.00845879,-0.00065030,0.00069146,0.00036090,-0.00077352,-0.000418
 85,0.00000614,0.00004921,0.00029550,-0.00002568,-0.00006885,-0.0000210
 3,0.00004115,0.00005006,-0.00011848,0.00005898,0.00031840,0.00015260,-
 0.00006134,-0.00007457,-0.00012801,-0.00002071,-0.00010960,0.00000800,
 -0.00000767,-0.00538779,0.03102322,-0.00519898,-0.00082474,-0.00123672
 ,0.00123327,0.00156370,-0.00072498,-0.00071559,-0.01003739,0.08003753,
 -0.09167635,0.01440810,-0.09327100,0.09385865,0.00125331,-0.00755723,0
 .00763810,-0.00252768,0.00074087,-0.00021606,-0.04981552,-0.00597307,-
 0.00855779,0.00131998,0.00056712,-0.00098705,0.00048527,0.00173876,-0.
 00052008,-0.00088791,0.00009505,-0.00146551,0.00082509,0.00084985,0.00
 028579,-0.00038550,-0.00004722,0.00001552,0.00021791,0.00001855,0.0000
 0066,0.00061185,0.00025323,0.00006559,-0.00005453,-0.00019745,-0.00007
 919,-0.00026117,0.00005617,-0.00011001,0.00087602,-0.00047037,0.002369
 07,0.00134205,0.00023662,0.00037136,0.00180714,0.00021681,-0.00069571,
 -0.12409250,-0.08887032,-0.05089176,0.00411861,-0.00162088,0.00027942,
 0.16516758,0.00185350,-0.00073035,0.00151562,-0.00017915,-0.00002445,0
 .00004049,0.00574679,0.01706782,0.00565302,-0.00024506,0.00227644,-0.0
 0029221,-0.00027439,0.00069305,-0.00036771,-0.00026282,0.00002761,-0.0
 0004776,0.00015429,-0.00005780,0.00004197,-0.00013589,-0.00000025,0.00
 000593,-0.00002527,0.00005305,-0.00002935,0.00028731,0.00002370,0.0000
 1721,-0.00001268,-0.00004019,-0.00000550,-0.00008070,0.00005455,-0.000
 03338,-0.00272115,-0.00538766,-0.00061524,0.00088523,0.00129872,-0.001
 74816,0.00131714,0.00027921,-0.00078289,-0.08937210,-0.14668512,-0.049
 43050,-0.01689851,-0.02150759,-0.00956622,0.09996349,0.15265927,0.0000
 8546,-0.00073775,0.00009540,-0.00004378,-0.00002047,0.00006811,0.00271
 678,0.00529440,0.00888014,0.00171902,0.00179219,0.00284271,0.00013152,
 0.00042710,0.00004947,-0.00036043,0.00027000,0.00007050,0.00003356,0.0
 0003085,-0.00003795,-0.00005669,0.00000359,0.00001732,0.00000270,-0.00
 000042,0.00000365,0.00027427,0.00008129,-0.00005959,0.00000410,-0.0000
 2337,-0.00000243,-0.00009980,0.00001921,-0.00001703,-0.01986269,-0.026
 61081,-0.01271365,-0.00036310,-0.00077657,-0.00695954,0.00072733,0.000
 05872,0.00137697,-0.04555180,-0.04614413,-0.07802176,0.00814590,0.0106
 9150,0.00519577,0.05249765,0.05564467,0.07921191\\0.00003198,-0.000035
 44,-0.00004162,-0.00002659,-0.00001920,0.00000646,0.00000306,0.0000265
 6,-0.00000421,0.00000248,-0.00000164,0.00002445,-0.00000695,0.00000129
 ,0.00000136,0.00000142,0.00002661,0.00002672,0.00001044,0.00002667,0.0
 0000750,-0.00000196,-0.00000283,-0.00000411,-0.00000111,-0.00001030,-0
 .00000147,0.00000299,-0.00000888,-0.00001529,0.00000125,0.00000050,-0.
 00000295,-0.00000079,-0.00000024,-0.00000446,0.00000183,0.00000805,-0.
 00001673,-0.00000005,-0.00000258,0.00000421,-0.00000068,-0.00000073,0.
 00000264,-0.00001514,-0.00000842,0.00000890,-0.00000234,0.00000083,0.0
 0000174,0.00000016,-0.00000025,0.00000686\\\@
 The archive entry for this job was punched.


 IT IS THE GODS' CUSTOM TO BRING LOW ALL THINGS OF SURPASSING GREATNESS.
     -- HERODOTUS
 IT IS THE LOFTY PINE THAT BY THE STORM IS OFTENER TOSSED;
 TOWERS FALL WITH HEAVIER CRASH WHICH HIGHER SOAR.
     -- HORACE
 THE BIGGER THEY COME, THE HARDER THEY FALL.
     -- BOB FITZSIMONS HEAVYWEIGHT CHAMPION, 1897-1899
 Job cpu time:       0 days  4 hours 39 minutes 27.8 seconds.
 Elapsed time:       0 days  0 hours 18 minutes 42.8 seconds.
 File lengths (MBytes):  RWF=    290 Int=      0 D2E=      0 Chk=     16 Scr=      1
 Normal termination of Gaussian 16 at Thu Oct 26 10:27:05 2023.
