 Entering Gaussian System, Link 0=/opt/software/gaussian/g16.c01/g16
 Initial command:
 /opt/software/gaussian/g16.c01/l1.exe "/scratch/arhender/17860234/Gau-6141.inp" -scrdir="/scratch/arhender/17860234/"
 Entering Link 1 = /opt/software/gaussian/g16.c01/l1.exe PID=      6142.
  
 Copyright (c) 1988-2019, Gaussian, Inc.  All Rights Reserved.
  
 This is part of the Gaussian(R) 16 program.  It is based on
 the Gaussian(R) 09 system (copyright 2009, Gaussian, Inc.),
 the Gaussian(R) 03 system (copyright 2003, Gaussian, Inc.),
 the Gaussian(R) 98 system (copyright 1998, Gaussian, Inc.),
 the Gaussian(R) 94 system (copyright 1995, Gaussian, Inc.),
 the Gaussian 92(TM) system (copyright 1992, Gaussian, Inc.),
 the Gaussian 90(TM) system (copyright 1990, Gaussian, Inc.),
 the Gaussian 88(TM) system (copyright 1988, Gaussian, Inc.),
 the Gaussian 86(TM) system (copyright 1986, Carnegie Mellon
 University), and the Gaussian 82(TM) system (copyright 1983,
 Carnegie Mellon University). Gaussian is a federally registered
 trademark of Gaussian, Inc.
  
 This software contains proprietary and confidential information,
 including trade secrets, belonging to Gaussian, Inc.
  
 This software is provided under written license and may be
 used, copied, transmitted, or stored only in accord with that
 written license.
  
 The following legend is applicable only to US Government
 contracts under FAR:
  
                    RESTRICTED RIGHTS LEGEND
  
 Use, reproduction and disclosure by the US Government is
 subject to restrictions as set forth in subparagraphs (a)
 and (c) of the Commercial Computer Software - Restricted
 Rights clause in FAR 52.227-19.
  
 Gaussian, Inc.
 340 Quinnipiac St., Bldg. 40, Wallingford CT 06492
  
  
 ---------------------------------------------------------------
 Warning -- This program may not be used in any manner that
 competes with the business of Gaussian, Inc. or will provide
 assistance to any competitor of Gaussian, Inc.  The licensee
 of this program is prohibited from giving any competitor of
 Gaussian, Inc. access to this program.  By using this program,
 the user acknowledges that Gaussian, Inc. is engaged in the
 business of creating and licensing software in the field of
 computational chemistry and represents and warrants to the
 licensee that it is not a competitor of Gaussian, Inc. and that
 it will not use this program in any manner prohibited above.
 ---------------------------------------------------------------
  

 Cite this work as:
 Gaussian 16, Revision C.01,
 M. J. Frisch, G. W. Trucks, H. B. Schlegel, G. E. Scuseria, 
 M. A. Robb, J. R. Cheeseman, G. Scalmani, V. Barone, 
 G. A. Petersson, H. Nakatsuji, X. Li, M. Caricato, A. V. Marenich, 
 J. Bloino, B. G. Janesko, R. Gomperts, B. Mennucci, H. P. Hratchian, 
 J. V. Ortiz, A. F. Izmaylov, J. L. Sonnenberg, D. Williams-Young, 
 F. Ding, F. Lipparini, F. Egidi, J. Goings, B. Peng, A. Petrone, 
 T. Henderson, D. Ranasinghe, V. G. Zakrzewski, J. Gao, N. Rega, 
 G. Zheng, W. Liang, M. Hada, M. Ehara, K. Toyota, R. Fukuda, 
 J. Hasegawa, M. Ishida, T. Nakajima, Y. Honda, O. Kitao, H. Nakai, 
 T. Vreven, K. Throssell, J. A. Montgomery, Jr., J. E. Peralta, 
 F. Ogliaro, M. J. Bearpark, J. J. Heyd, E. N. Brothers, K. N. Kudin, 
 V. N. Staroverov, T. A. Keith, R. Kobayashi, J. Normand, 
 K. Raghavachari, A. P. Rendell, J. C. Burant, S. S. Iyengar, 
 J. Tomasi, M. Cossi, J. M. Millam, M. Klene, C. Adamo, R. Cammi, 
 J. W. Ochterski, R. L. Martin, K. Morokuma, O. Farkas, 
 J. B. Foresman, and D. J. Fox, Gaussian, Inc., Wallingford CT, 2019.
 
 ******************************************
 Gaussian 16:  ES64L-G16RevC.01  3-Jul-2019
                16-Mar-2024 
 ******************************************
 %chk=HydroxideOpt.chk
 %mem=1600MB
 %nprocs=4
 Will use up to    4 processors via shared memory.
 ---------------------------------------------
 # opt freq wb97xd/def2tzvpp geom=connectivity
 ---------------------------------------------
 1/18=20,19=15,26=3,38=1,57=2/1,3;
 2/9=110,12=2,17=6,18=5,40=1/2;
 3/5=44,7=202,11=2,25=1,30=1,71=1,74=-58/1,2,3;
 4//1;
 5/5=2,38=5/2;
 6/7=2,8=2,9=2,10=2,28=1/1;
 7//1,2,3,16;
 1/18=20,19=15,26=3/3(2);
 2/9=110/2;
 99//99;
 2/9=110/2;
 3/5=44,7=202,11=2,25=1,30=1,71=1,74=-58/1,2,3;
 4/5=5,16=3,69=1/1;
 5/5=2,38=5/2;
 7//1,2,3,16;
 1/18=20,19=15,26=3/3(-5);
 2/9=110/2;
 6/7=2,8=2,9=2,10=2,19=2,28=1/1;
 99/9=1/99;
 ---------
 Hydroxide
 ---------
 Symbolic Z-matrix:
 Charge = -1 Multiplicity = 1
 O                    -0.86087   1.36522   0. 
 H                     0.09913   1.36522   0. 
 

 GradGradGradGradGradGradGradGradGradGradGradGradGradGradGradGradGradGrad
 Berny optimization.
 Initialization pass.
                           ----------------------------
                           !    Initial Parameters    !
                           ! (Angstroms and Degrees)  !
 --------------------------                            --------------------------
 ! Name  Definition              Value          Derivative Info.                !
 --------------------------------------------------------------------------------
 ! R1    R(1,2)                  0.96           estimate D2E/DX2                !
 --------------------------------------------------------------------------------
 Trust Radius=3.00D-01 FncErr=1.00D-07 GrdErr=1.00D-06 EigMax=2.50D+02 EigMin=1.00D-04
 Number of steps in this run=     20 maximum allowed number of steps=    100.
 GradGradGradGradGradGradGradGradGradGradGradGradGradGradGradGradGradGrad

                          Input orientation:                          
 ---------------------------------------------------------------------
 Center     Atomic      Atomic             Coordinates (Angstroms)
 Number     Number       Type             X           Y           Z
 ---------------------------------------------------------------------
      1          8           0       -0.860870    1.365217    0.000000
      2          1           0        0.099130    1.365217    0.000000
 ---------------------------------------------------------------------
 Stoichiometry    HO(1-)
 Framework group  C*V[C*(HO)]
 Deg. of freedom     1
 Full point group                 C*V     NOp   4
 Largest Abelian subgroup         C2V     NOp   4
 Largest concise Abelian subgroup C1      NOp   1
                         Standard orientation:                         
 ---------------------------------------------------------------------
 Center     Atomic      Atomic             Coordinates (Angstroms)
 Number     Number       Type             X           Y           Z
 ---------------------------------------------------------------------
      1          8           0        0.000000    0.000000    0.106667
      2          1           0        0.000000    0.000000   -0.853333
 ---------------------------------------------------------------------
 Rotational constants (GHZ):           0.0000000         578.3977159         578.3977159
 Standard basis: def2TZVPP (5D, 7F)
 There are    25 symmetry adapted cartesian basis functions of A1  symmetry.
 There are     4 symmetry adapted cartesian basis functions of A2  symmetry.
 There are    11 symmetry adapted cartesian basis functions of B1  symmetry.
 There are    11 symmetry adapted cartesian basis functions of B2  symmetry.
 There are    21 symmetry adapted basis functions of A1  symmetry.
 There are     4 symmetry adapted basis functions of A2  symmetry.
 There are    10 symmetry adapted basis functions of B1  symmetry.
 There are    10 symmetry adapted basis functions of B2  symmetry.
    45 basis functions,    68 primitive gaussians,    51 cartesian basis functions
     5 alpha electrons        5 beta electrons
       nuclear repulsion energy         4.4098100910 Hartrees.
 NAtoms=    2 NActive=    2 NUniq=    2 SFac= 1.00D+00 NAtFMM=   60 NAOKFM=F Big=F
 Integral buffers will be    131072 words long.
 Raffenetti 2 integral format.
 Two-electron integral symmetry is turned on.
 Nuclear repulsion after empirical dispersion term =        4.4098095227 Hartrees.
 One-electron integrals computed using PRISM.
   4 Symmetry operations used in ECPInt.
 ECPInt:  NShTT=     153 NPrTT=     431 LenC2=     154 LenP2D=     425.
 LDataN:  DoStor=T MaxTD1= 6 Len=  172
 NBasis=    45 RedAO= T EigKep=  3.19D-03  NBF=    21     4    10    10
 NBsUse=    45 1.00D-06 EigRej= -1.00D+00 NBFU=    21     4    10    10
 ExpMin= 1.03D-01 ExpMax= 2.70D+04 ExpMxC= 9.22D+02 IAcc=3 IRadAn=         5 AccDes= 0.00D+00
 Harris functional with IExCor= 4639 and IRadAn=       5 diagonalized for initial guess.
 HarFok:  IExCor= 4639 AccDes= 0.00D+00 IRadAn=         5 IDoV= 1 UseB2=F ITyADJ=14
 ICtDFT=  3500011 ScaDFX=  1.000000  1.000000  1.000000  1.000000
 FoFCou: FMM=F IPFlag=           0 FMFlag=      100000 FMFlg1=           0
         NFxFlg=           0 DoJE=T BraDBF=F KetDBF=T FulRan=T
         wScrn=  0.000000 ICntrl=       500 IOpCl=  0 I1Cent=   200000004 NGrid=           0
         NMat0=    1 NMatS0=      1 NMatT0=    0 NMatD0=    1 NMtDS0=    0 NMtDT0=    0
 Petite list used in FoFCou.
 Initial guess orbital symmetries:
       Occupied  (SG) (SG) (SG) (PI) (PI)
       Virtual   (SG) (SG) (SG) (PI) (PI) (SG) (PI) (PI) (SG) (DLTA)
                 (DLTA) (SG) (PI) (PI) (SG) (PI) (PI) (SG) (DLTA)
                 (DLTA) (SG) (PI) (PI) (PI) (PI) (SG) (SG) (PHI)
                 (PHI) (DLTA) (DLTA) (DLTA) (DLTA) (PI) (PI) (PI)
                 (PI) (SG) (SG) (SG)
 The electronic state of the initial guess is 1-SG.
 Keep R1 ints in memory in symmetry-blocked form, NReq=4616119.
 Requested convergence on RMS density matrix=1.00D-08 within 128 cycles.
 Requested convergence on MAX density matrix=1.00D-06.
 Requested convergence on             energy=1.00D-06.
 No special actions if energy rises.
 Integral accuracy reduced to 1.0D-05 until final iterations.
 Initial convergence to 1.0D-05 achieved.  Increase integral accuracy.
 SCF Done:  E(RwB97XD) =  -75.7840968251     A.U. after   13 cycles
            NFock= 13  Conv=0.18D-08     -V/T= 2.0015

 **********************************************************************

            Population analysis using the SCF Density.

 **********************************************************************

 Orbital symmetries:
       Occupied  (SG) (SG) (SG) (PI) (PI)
       Virtual   (SG) (SG) (SG) (PI) (PI) (SG) (PI) (PI) (SG) (DLTA)
                 (DLTA) (SG) (PI) (PI) (SG) (PI) (PI) (SG) (DLTA)
                 (DLTA) (SG) (PI) (PI) (PI) (PI) (SG) (SG) (PHI)
                 (PHI) (DLTA) (DLTA) (DLTA) (DLTA) (PI) (PI) (PI)
                 (PI) (SG) (SG) (SG)
 The electronic state is 1-SG.
 Alpha  occ. eigenvalues --  -18.82305  -0.64500  -0.13511   0.00569   0.00569
 Alpha virt. eigenvalues --    0.37281   0.78628   0.81795   0.83627   0.83627
 Alpha virt. eigenvalues --    0.92674   1.11882   1.11882   1.58780   1.95600
 Alpha virt. eigenvalues --    1.95600   2.19093   2.25136   2.25136   2.69739
 Alpha virt. eigenvalues --    3.03178   3.03178   3.18053   3.66873   3.66873
 Alpha virt. eigenvalues --    3.75544   3.99400   3.99400   4.44014   4.44014
 Alpha virt. eigenvalues --    4.63824   5.23983   5.65252   5.65252   5.91177
 Alpha virt. eigenvalues --    5.91177   6.74627   6.74627   6.88336   6.88336
 Alpha virt. eigenvalues --    7.12997   7.12997   7.57273   7.78103  43.71789
          Condensed to atoms (all electrons):
               1          2
     1  O    8.805051   0.259261
     2  H    0.259261   0.676428
 Mulliken charges:
               1
     1  O   -1.064311
     2  H    0.064311
 Sum of Mulliken charges =  -1.00000
 Mulliken charges with hydrogens summed into heavy atoms:
               1
     1  O   -1.000000
 Electronic spatial extent (au):  <R**2>=             21.6628
 Charge=             -1.0000 electrons
 Dipole moment (field-independent basis, Debye):
    X=              0.0000    Y=              0.0000    Z=             -1.4706  Tot=              1.4706
 Quadrupole moment (field-independent basis, Debye-Ang):
   XX=             -8.9417   YY=             -8.9417   ZZ=             -7.3190
   XY=              0.0000   XZ=              0.0000   YZ=              0.0000
 Traceless Quadrupole moment (field-independent basis, Debye-Ang):
   XX=             -0.5409   YY=             -0.5409   ZZ=              1.0818
   XY=              0.0000   XZ=              0.0000   YZ=              0.0000
 Octapole moment (field-independent basis, Debye-Ang**2):
  XXX=              0.0000  YYY=              0.0000  ZZZ=             -0.8982  XYY=              0.0000
  XXY=              0.0000  XXZ=             -0.2185  XZZ=              0.0000  YZZ=              0.0000
  YYZ=             -0.2185  XYZ=              0.0000
 Hexadecapole moment (field-independent basis, Debye-Ang**3):
 XXXX=             -9.0648 YYYY=             -9.0648 ZZZZ=            -10.4669 XXXY=              0.0000
 XXXZ=              0.0000 YYYX=              0.0000 YYYZ=              0.0000 ZZZX=              0.0000
 ZZZY=              0.0000 XXYY=             -3.0216 XXZZ=             -3.4149 YYZZ=             -3.4149
 XXYZ=              0.0000 YYXZ=              0.0000 ZZXY=              0.0000
 N-N= 4.409809522660D+00 E-N=-1.925432949655D+02  KE= 7.566748716638D+01
 Symmetry A1   KE= 6.739232326415D+01
 Symmetry A2   KE=-6.682276627954D-52
 Symmetry B1   KE= 4.137581951116D+00
 Symmetry B2   KE= 4.137581951116D+00
   4 Symmetry operations used in ECPInt.
 ECPInt:  NShTT=     153 NPrTT=     431 LenC2=     154 LenP2D=     425.
 LDataN:  DoStor=T MaxTD1= 7 Len=  274
 Calling FoFJK, ICntrl=      2127 FMM=F ISym2X=1 I1Cent= 0 IOpClX= 0 NMat=1 NMatS=1 NMatT=0.
 ***** Axes restored to original set *****
 -------------------------------------------------------------------
 Center     Atomic                   Forces (Hartrees/Bohr)
 Number     Number              X              Y              Z
 -------------------------------------------------------------------
      1        8          -0.002172331   -0.000000000   -0.000000000
      2        1           0.002172331   -0.000000000   -0.000000000
 -------------------------------------------------------------------
 Cartesian Forces:  Max     0.002172331 RMS     0.001254196

 GradGradGradGradGradGradGradGradGradGradGradGradGradGradGradGradGradGrad
 Berny optimization.
 FormGI is forming the generalized inverse of G from B-inverse, IUseBI=4.
 Internal  Forces:  Max     0.002172331 RMS     0.002172331
 Search for a local minimum.
 Step number   1 out of a maximum of   20
 All quantities printed in internal units (Hartrees-Bohrs-Radians)
 Mixed Optimization -- RFO/linear search
 Second derivative matrix not updated -- first step.
 The second derivative matrix:
                          R1
           R1           0.55473
 ITU=  0
     Eigenvalues ---    0.55473
 RFO step:  Lambda=-8.50668817D-06 EMin= 5.54734045D-01
 Linear search not attempted -- first point.
 Iteration  1 RMS(Cart)=  0.00276898 RMS(Int)=  0.00000000
 Iteration  2 RMS(Cart)=  0.00000000 RMS(Int)=  0.00000000
 ClnCor:  largest displacement from symmetrization is 1.11D-16 for atom     2.
 Variable       Old X    -DE/DX   Delta X   Delta X   Delta X     New X
                                 (Linear)    (Quad)   (Total)
    R1        1.81414   0.00217   0.00000   0.00392   0.00392   1.81805
         Item               Value     Threshold  Converged?
 Maximum Force            0.002172     0.000450     NO 
 RMS     Force            0.002172     0.000300     NO 
 Maximum Displacement     0.001958     0.001800     NO 
 RMS     Displacement     0.002769     0.001200     NO 
 Predicted change in Energy=-4.253409D-06
 GradGradGradGradGradGradGradGradGradGradGradGradGradGradGradGradGradGrad

                          Input orientation:                          
 ---------------------------------------------------------------------
 Center     Atomic      Atomic             Coordinates (Angstroms)
 Number     Number       Type             X           Y           Z
 ---------------------------------------------------------------------
      1          8           0       -0.861906    1.365217    0.000000
      2          1           0        0.100167    1.365217    0.000000
 ---------------------------------------------------------------------
 Stoichiometry    HO(1-)
 Framework group  C*V[C*(HO)]
 Deg. of freedom     1
 Full point group                 C*V     NOp   4
 Largest Abelian subgroup         C2V     NOp   4
 Largest concise Abelian subgroup C1      NOp   1
                         Standard orientation:                         
 ---------------------------------------------------------------------
 Center     Atomic      Atomic             Coordinates (Angstroms)
 Number     Number       Type             X           Y           Z
 ---------------------------------------------------------------------
      1          8           0        0.000000    0.000000    0.106897
      2          1           0        0.000000    0.000000   -0.855175
 ---------------------------------------------------------------------
 Rotational constants (GHZ):           0.0000000         575.9087636         575.9087636
 Standard basis: def2TZVPP (5D, 7F)
 There are    25 symmetry adapted cartesian basis functions of A1  symmetry.
 There are     4 symmetry adapted cartesian basis functions of A2  symmetry.
 There are    11 symmetry adapted cartesian basis functions of B1  symmetry.
 There are    11 symmetry adapted cartesian basis functions of B2  symmetry.
 There are    21 symmetry adapted basis functions of A1  symmetry.
 There are     4 symmetry adapted basis functions of A2  symmetry.
 There are    10 symmetry adapted basis functions of B1  symmetry.
 There are    10 symmetry adapted basis functions of B2  symmetry.
    45 basis functions,    68 primitive gaussians,    51 cartesian basis functions
     5 alpha electrons        5 beta electrons
       nuclear repulsion energy         4.4003117477 Hartrees.
 NAtoms=    2 NActive=    2 NUniq=    2 SFac= 1.00D+00 NAtFMM=   60 NAOKFM=F Big=F
 Integral buffers will be    131072 words long.
 Raffenetti 2 integral format.
 Two-electron integral symmetry is turned on.
 Nuclear repulsion after empirical dispersion term =        4.4003111720 Hartrees.
 One-electron integrals computed using PRISM.
   4 Symmetry operations used in ECPInt.
 ECPInt:  NShTT=     153 NPrTT=     431 LenC2=     154 LenP2D=     425.
 LDataN:  DoStor=T MaxTD1= 6 Len=  172
 NBasis=    45 RedAO= T EigKep=  3.21D-03  NBF=    21     4    10    10
 NBsUse=    45 1.00D-06 EigRej= -1.00D+00 NBFU=    21     4    10    10
 Initial guess from the checkpoint file:  "HydroxideOpt.chk"
 B after Tr=     0.000000    0.000000   -0.000000
         Rot=    1.000000    0.000000    0.000000    0.000000 Ang=   0.00 deg.
 Initial guess orbital symmetries:
       Occupied  (SG) (SG) (SG) (PI) (PI)
       Virtual   (SG) (SG) (SG) (PI) (PI) (SG) (PI) (PI) (SG) (DLTA)
                 (DLTA) (SG) (PI) (PI) (SG) (PI) (PI) (SG) (DLTA)
                 (DLTA) (SG) (PI) (PI) (PI) (PI) (SG) (SG) (PHI)
                 (PHI) (DLTA) (DLTA) (DLTA) (DLTA) (PI) (PI) (PI)
                 (PI) (SG) (SG) (SG)
 Keep R1 ints in memory in symmetry-blocked form, NReq=4616119.
 Requested convergence on RMS density matrix=1.00D-08 within 128 cycles.
 Requested convergence on MAX density matrix=1.00D-06.
 Requested convergence on             energy=1.00D-06.
 No special actions if energy rises.
 SCF Done:  E(RwB97XD) =  -75.7841013660     A.U. after    8 cycles
            NFock=  8  Conv=0.15D-08     -V/T= 2.0016
   4 Symmetry operations used in ECPInt.
 ECPInt:  NShTT=     153 NPrTT=     431 LenC2=     154 LenP2D=     425.
 LDataN:  DoStor=T MaxTD1= 7 Len=  274
 Calling FoFJK, ICntrl=      2127 FMM=F ISym2X=1 I1Cent= 0 IOpClX= 0 NMat=1 NMatS=1 NMatT=0.
 ***** Axes restored to original set *****
 -------------------------------------------------------------------
 Center     Atomic                   Forces (Hartrees/Bohr)
 Number     Number              X              Y              Z
 -------------------------------------------------------------------
      1        8          -0.000152012   -0.000000000   -0.000000000
      2        1           0.000152012   -0.000000000   -0.000000000
 -------------------------------------------------------------------
 Cartesian Forces:  Max     0.000152012 RMS     0.000087764

 GradGradGradGradGradGradGradGradGradGradGradGradGradGradGradGradGradGrad
 Berny optimization.
 Using GEDIIS/GDIIS optimizer.
 Internal  Forces:  Max     0.000152012 RMS     0.000152012
 Search for a local minimum.
 Step number   2 out of a maximum of   20
 All quantities printed in internal units (Hartrees-Bohrs-Radians)
 Mixed Optimization -- En-DIIS/RFO-DIIS
 Update second derivatives using D2CorX and points    1    2
 DE= -4.54D-06 DEPred=-4.25D-06 R= 1.07D+00
 TightC=F SS=  1.41D+00  RLast= 3.92D-03 DXNew= 5.0454D-01 1.1748D-02
 Trust test= 1.07D+00 RLast= 3.92D-03 DXMaxT set to 3.00D-01
 The second derivative matrix:
                          R1
           R1           0.51592
 ITU=  1  0
 Use linear search instead of GDIIS.
     Eigenvalues ---    0.51592
 RFO step:  Lambda= 0.00000000D+00 EMin= 5.15923740D-01
 Quartic linear search produced a step of  0.07586.
 Iteration  1 RMS(Cart)=  0.00021006 RMS(Int)=  0.00000000
 Iteration  2 RMS(Cart)=  0.00000000 RMS(Int)=  0.00000000
 ClnCor:  largest displacement from symmetrization is 0.00D+00 for atom     0.
 Variable       Old X    -DE/DX   Delta X   Delta X   Delta X     New X
                                 (Linear)    (Quad)   (Total)
    R1        1.81805   0.00015   0.00030   0.00000   0.00030   1.81835
         Item               Value     Threshold  Converged?
 Maximum Force            0.000152     0.000450     YES
 RMS     Force            0.000152     0.000300     YES
 Maximum Displacement     0.000149     0.001800     YES
 RMS     Displacement     0.000210     0.001200     YES
 Predicted change in Energy=-2.239280D-08
 Optimization completed.
    -- Stationary point found.
                           ----------------------------
                           !   Optimized Parameters   !
                           ! (Angstroms and Degrees)  !
 --------------------------                            --------------------------
 ! Name  Definition              Value          Derivative Info.                !
 --------------------------------------------------------------------------------
 ! R1    R(1,2)                  0.9621         -DE/DX =    0.0002              !
 --------------------------------------------------------------------------------
 GradGradGradGradGradGradGradGradGradGradGradGradGradGradGradGradGradGrad

                          Input orientation:                          
 ---------------------------------------------------------------------
 Center     Atomic      Atomic             Coordinates (Angstroms)
 Number     Number       Type             X           Y           Z
 ---------------------------------------------------------------------
      1          8           0       -0.861906    1.365217    0.000000
      2          1           0        0.100167    1.365217    0.000000
 ---------------------------------------------------------------------
 Stoichiometry    HO(1-)
 Framework group  C*V[C*(HO)]
 Deg. of freedom     1
 Full point group                 C*V     NOp   4
 Largest Abelian subgroup         C2V     NOp   4
 Largest concise Abelian subgroup C1      NOp   1
                         Standard orientation:                         
 ---------------------------------------------------------------------
 Center     Atomic      Atomic             Coordinates (Angstroms)
 Number     Number       Type             X           Y           Z
 ---------------------------------------------------------------------
      1          8           0        0.000000    0.000000    0.106897
      2          1           0        0.000000    0.000000   -0.855175
 ---------------------------------------------------------------------
 Rotational constants (GHZ):           0.0000000         575.9087636         575.9087636

 **********************************************************************

            Population analysis using the SCF Density.

 **********************************************************************

 Orbital symmetries:
       Occupied  (SG) (SG) (SG) (PI) (PI)
       Virtual   (SG) (SG) (SG) (PI) (PI) (SG) (PI) (PI) (SG) (DLTA)
                 (DLTA) (SG) (PI) (PI) (SG) (PI) (PI) (SG) (DLTA)
                 (DLTA) (SG) (PI) (PI) (PI) (PI) (SG) (SG) (PHI)
                 (PHI) (DLTA) (DLTA) (DLTA) (DLTA) (PI) (PI) (PI)
                 (PI) (SG) (SG) (SG)
 The electronic state is 1-SG.
 Alpha  occ. eigenvalues --  -18.82341  -0.64455  -0.13502   0.00565   0.00565
 Alpha virt. eigenvalues --    0.37263   0.78574   0.81718   0.83623   0.83623
 Alpha virt. eigenvalues --    0.92658   1.11828   1.11828   1.58642   1.95595
 Alpha virt. eigenvalues --    1.95595   2.19362   2.25038   2.25038   2.69710
 Alpha virt. eigenvalues --    3.03143   3.03143   3.18002   3.66779   3.66779
 Alpha virt. eigenvalues --    3.75080   3.99400   3.99400   4.43716   4.43716
 Alpha virt. eigenvalues --    4.63490   5.23601   5.65246   5.65246   5.90923
 Alpha virt. eigenvalues --    5.90923   6.74614   6.74614   6.87964   6.87964
 Alpha virt. eigenvalues --    7.12587   7.12587   7.56856   7.77491  43.71428
          Condensed to atoms (all electrons):
               1          2
     1  O    8.806615   0.258217
     2  H    0.258217   0.676951
 Mulliken charges:
               1
     1  O   -1.064832
     2  H    0.064832
 Sum of Mulliken charges =  -1.00000
 Mulliken charges with hydrogens summed into heavy atoms:
               1
     1  O   -1.000000
 Electronic spatial extent (au):  <R**2>=             21.6817
 Charge=             -1.0000 electrons
 Dipole moment (field-independent basis, Debye):
    X=              0.0000    Y=              0.0000    Z=             -1.4670  Tot=              1.4670
 Quadrupole moment (field-independent basis, Debye-Ang):
   XX=             -8.9443   YY=             -8.9443   ZZ=             -7.3222
   XY=              0.0000   XZ=              0.0000   YZ=              0.0000
 Traceless Quadrupole moment (field-independent basis, Debye-Ang):
   XX=             -0.5407   YY=             -0.5407   ZZ=              1.0814
   XY=              0.0000   XZ=              0.0000   YZ=              0.0000
 Octapole moment (field-independent basis, Debye-Ang**2):
  XXX=              0.0000  YYY=              0.0000  ZZZ=             -0.8869  XYY=              0.0000
  XXY=              0.0000  XXZ=             -0.2150  XZZ=              0.0000  YZZ=              0.0000
  YYZ=             -0.2150  XYZ=              0.0000
 Hexadecapole moment (field-independent basis, Debye-Ang**3):
 XXXX=             -9.0692 YYYY=             -9.0692 ZZZZ=            -10.5020 XXXY=              0.0000
 XXXZ=              0.0000 YYYX=              0.0000 YYYZ=              0.0000 ZZZX=              0.0000
 ZZZY=              0.0000 XXYY=             -3.0231 XXZZ=             -3.4221 YYZZ=             -3.4221
 XXYZ=              0.0000 YYXZ=              0.0000 ZZXY=              0.0000
 N-N= 4.400311171961D+00 E-N=-1.925214058498D+02  KE= 7.566386017992D+01
 Symmetry A1   KE= 6.738765753377D+01
 Symmetry A2   KE= 4.764954741104D-52
 Symmetry B1   KE= 4.138101323074D+00
 Symmetry B2   KE= 4.138101323074D+00
 Unable to Open any file for archive entry.
 1\1\GINC-GRA767\FOpt\RwB97XD\def2TZVPP\H1O1(1-)\ARHENDER\16-Mar-2024\0
 \\# opt freq wb97xd/def2tzvpp geom=connectivity\\Hydroxide\\-1,1\O,-0.
 8619056495,1.36521737,0.\H,0.1001665695,1.36521737,0.\\Version=ES64L-G
 16RevC.01\State=1-SG\HF=-75.7841014\RMSD=1.461e-09\RMSF=8.776e-05\Dipo
 le=0.5771559,0.,0.\Quadrupole=0.8040123,-0.4020061,-0.4020061,0.,0.,0.
 \PG=C*V [C*(H1O1)]\\@
 The archive entry for this job was punched.


 A successful marriage requires falling in love
 many times, always with the same person.
                           -- Mignon McLaughlin
 Job cpu time:       0 days  0 hours  0 minutes 19.0 seconds.
 Elapsed time:       0 days  0 hours  0 minutes  4.9 seconds.
 File lengths (MBytes):  RWF=      6 Int=      0 D2E=      0 Chk=      1 Scr=      1
 Normal termination of Gaussian 16 at Sat Mar 16 00:01:38 2024.
 Link1:  Proceeding to internal job step number  2.
 ----------------------------------------------------------------------
 #N Geom=AllCheck Guess=TCheck SCRF=Check GenChk RwB97XD/def2TZVPP Freq
 ----------------------------------------------------------------------
 1/10=4,29=7,30=1,38=1,40=1/1,3;
 2/12=2,40=1/2;
 3/5=44,7=202,11=2,14=-4,25=1,30=1,70=2,71=2,74=-58,116=1,140=1/1,2,3;
 4/5=101/1;
 5/5=2,38=6,98=1/2;
 8/6=4,10=90,11=11/1;
 11/6=1,8=1,9=11,15=111,16=1/1,2,10;
 10/6=1/2;
 6/7=2,8=2,9=2,10=2,28=1/1;
 7/8=1,10=1,25=1/1,2,3,16;
 1/10=4,30=1/3;
 99//99;
 Structure from the checkpoint file:  "HydroxideOpt.chk"
 ---------
 Hydroxide
 ---------
 Charge = -1 Multiplicity = 1
 Redundant internal coordinates found in file.  (old form).
 O,0,-0.8619056495,1.36521737,0.
 H,0,0.1001665695,1.36521737,0.
 Recover connectivity data from disk.

 GradGradGradGradGradGradGradGradGradGradGradGradGradGradGradGradGradGrad
 Berny optimization.
 Initialization pass.
                           ----------------------------
                           !    Initial Parameters    !
                           ! (Angstroms and Degrees)  !
 --------------------------                            --------------------------
 ! Name  Definition              Value          Derivative Info.                !
 --------------------------------------------------------------------------------
 ! R1    R(1,2)                  0.9621         calculate D2E/DX2 analytically  !
 --------------------------------------------------------------------------------
 Trust Radius=3.00D-01 FncErr=1.00D-07 GrdErr=1.00D-07 EigMax=2.50D+02 EigMin=1.00D-04
 Number of steps in this run=      2 maximum allowed number of steps=      2.
 GradGradGradGradGradGradGradGradGradGradGradGradGradGradGradGradGradGrad

                          Input orientation:                          
 ---------------------------------------------------------------------
 Center     Atomic      Atomic             Coordinates (Angstroms)
 Number     Number       Type             X           Y           Z
 ---------------------------------------------------------------------
      1          8           0       -0.861906    1.365217    0.000000
      2          1           0        0.100167    1.365217    0.000000
 ---------------------------------------------------------------------
 Stoichiometry    HO(1-)
 Framework group  C*V[C*(HO)]
 Deg. of freedom     1
 Full point group                 C*V     NOp   4
 Largest Abelian subgroup         C2V     NOp   4
 Largest concise Abelian subgroup C1      NOp   1
                         Standard orientation:                         
 ---------------------------------------------------------------------
 Center     Atomic      Atomic             Coordinates (Angstroms)
 Number     Number       Type             X           Y           Z
 ---------------------------------------------------------------------
      1          8           0        0.000000    0.000000    0.106897
      2          1           0        0.000000    0.000000   -0.855175
 ---------------------------------------------------------------------
 Rotational constants (GHZ):           0.0000000         575.9087636         575.9087636
 Standard basis: def2TZVPP (5D, 7F)
 There are    25 symmetry adapted cartesian basis functions of A1  symmetry.
 There are     4 symmetry adapted cartesian basis functions of A2  symmetry.
 There are    11 symmetry adapted cartesian basis functions of B1  symmetry.
 There are    11 symmetry adapted cartesian basis functions of B2  symmetry.
 There are    21 symmetry adapted basis functions of A1  symmetry.
 There are     4 symmetry adapted basis functions of A2  symmetry.
 There are    10 symmetry adapted basis functions of B1  symmetry.
 There are    10 symmetry adapted basis functions of B2  symmetry.
    45 basis functions,    68 primitive gaussians,    51 cartesian basis functions
     5 alpha electrons        5 beta electrons
       nuclear repulsion energy         4.4003117477 Hartrees.
 NAtoms=    2 NActive=    2 NUniq=    2 SFac= 1.00D+00 NAtFMM=   60 NAOKFM=F Big=F
 Integral buffers will be    131072 words long.
 Raffenetti 2 integral format.
 Two-electron integral symmetry is turned on.
 Nuclear repulsion after empirical dispersion term =        4.4003111720 Hartrees.
 One-electron integrals computed using PRISM.
   4 Symmetry operations used in ECPInt.
 ECPInt:  NShTT=     153 NPrTT=     431 LenC2=     154 LenP2D=     425.
 LDataN:  DoStor=T MaxTD1= 6 Len=  172
 NBasis=    45 RedAO= T EigKep=  3.21D-03  NBF=    21     4    10    10
 NBsUse=    45 1.00D-06 EigRej= -1.00D+00 NBFU=    21     4    10    10
 Initial guess from the checkpoint file:  "HydroxideOpt.chk"
 B after Tr=     0.000000    0.000000    0.000000
         Rot=    1.000000    0.000000    0.000000    0.000000 Ang=   0.00 deg.
 Initial guess orbital symmetries:
       Occupied  (SG) (SG) (SG) (PI) (PI)
       Virtual   (SG) (SG) (SG) (PI) (PI) (SG) (PI) (PI) (SG) (DLTA)
                 (DLTA) (SG) (PI) (PI) (SG) (PI) (PI) (SG) (DLTA)
                 (DLTA) (SG) (PI) (PI) (PI) (PI) (SG) (SG) (PHI)
                 (PHI) (DLTA) (DLTA) (DLTA) (DLTA) (PI) (PI) (PI)
                 (PI) (SG) (SG) (SG)
 Keep R1 ints in memory in symmetry-blocked form, NReq=4616119.
 Requested convergence on RMS density matrix=1.00D-08 within 128 cycles.
 Requested convergence on MAX density matrix=1.00D-06.
 Requested convergence on             energy=1.00D-06.
 No special actions if energy rises.
 Skip diagonalization as Alpha Fock matrix is already diagonal.
 SCF Done:  E(RwB97XD) =  -75.7841013660     A.U. after    1 cycles
            NFock=  1  Conv=0.00D+00     -V/T= 2.0016
 DoSCS=F DFT=T ScalE2(SS,OS)=  1.000000  1.000000
 Range of M.O.s used for correlation:     1    45
 NBasis=    45 NAE=     5 NBE=     5 NFC=     0 NFV=     0
 NROrb=     45 NOA=     5 NOB=     5 NVA=    40 NVB=    40
   4 Symmetry operations used in ECPInt.
 ECPInt:  NShTT=     153 NPrTT=     431 LenC2=     154 LenP2D=     425.
 LDataN:  DoStor=T MaxTD1= 7 Len=  274
 Symmetrizing basis deriv contribution to polar:
 IMax=3 JMax=2 DiffMx= 0.00D+00
 G2DrvN: will do     3 centers at a time, making    1 passes.
 Calling FoFCou, ICntrl=  3107 FMM=F I1Cent=   0 AccDes= 0.00D+00.
 End of G2Drv F.D. properties file   721 does not exist.
 End of G2Drv F.D. properties file   722 does not exist.
 End of G2Drv F.D. properties file   788 does not exist.
          IDoAtm=11
          Differentiating once with respect to electric field.
                with respect to dipole field.
          Differentiating once with respect to nuclear coordinates.
 Keep R1 ints in memory in symmetry-blocked form, NReq=4604236.
          There are     9 degrees of freedom in the 1st order CPHF.  IDoFFX=6 NUNeed=     3.
      6 vectors produced by pass  0 Test12= 2.22D-15 1.11D-08 XBig12= 4.16D+00 1.64D+00.
 AX will form     6 AO Fock derivatives at one time.
      6 vectors produced by pass  1 Test12= 2.22D-15 1.11D-08 XBig12= 6.57D-01 4.41D-01.
      6 vectors produced by pass  2 Test12= 2.22D-15 1.11D-08 XBig12= 5.09D-02 9.37D-02.
      6 vectors produced by pass  3 Test12= 2.22D-15 1.11D-08 XBig12= 2.82D-04 5.62D-03.
      6 vectors produced by pass  4 Test12= 2.22D-15 1.11D-08 XBig12= 8.44D-07 2.72D-04.
      6 vectors produced by pass  5 Test12= 2.22D-15 1.11D-08 XBig12= 2.62D-09 1.96D-05.
      4 vectors produced by pass  6 Test12= 2.22D-15 1.11D-08 XBig12= 2.29D-11 1.59D-06.
      3 vectors produced by pass  7 Test12= 2.22D-15 1.11D-08 XBig12= 1.02D-13 1.14D-07.
 InvSVY:  IOpt=1 It=  1 EMax= 6.66D-16
 Solved reduced A of dimension    43 with     6 vectors.
 Isotropic polarizability for W=    0.000000        9.12 Bohr**3.
 End of Minotr F.D. properties file   721 does not exist.
 End of Minotr F.D. properties file   722 does not exist.
 End of Minotr F.D. properties file   788 does not exist.

 **********************************************************************

            Population analysis using the SCF Density.

 **********************************************************************

 Orbital symmetries:
       Occupied  (SG) (SG) (SG) (PI) (PI)
       Virtual   (SG) (SG) (SG) (PI) (PI) (SG) (PI) (PI) (SG) (DLTA)
                 (DLTA) (SG) (PI) (PI) (SG) (PI) (PI) (SG) (DLTA)
                 (DLTA) (SG) (PI) (PI) (PI) (PI) (SG) (SG) (PHI)
                 (PHI) (DLTA) (DLTA) (DLTA) (DLTA) (PI) (PI) (PI)
                 (PI) (SG) (SG) (SG)
 The electronic state is 1-SG.
 Alpha  occ. eigenvalues --  -18.82341  -0.64455  -0.13502   0.00565   0.00565
 Alpha virt. eigenvalues --    0.37263   0.78574   0.81718   0.83623   0.83623
 Alpha virt. eigenvalues --    0.92658   1.11828   1.11828   1.58642   1.95595
 Alpha virt. eigenvalues --    1.95595   2.19362   2.25038   2.25038   2.69710
 Alpha virt. eigenvalues --    3.03143   3.03143   3.18002   3.66779   3.66779
 Alpha virt. eigenvalues --    3.75080   3.99400   3.99400   4.43716   4.43716
 Alpha virt. eigenvalues --    4.63490   5.23601   5.65246   5.65246   5.90923
 Alpha virt. eigenvalues --    5.90923   6.74614   6.74614   6.87964   6.87964
 Alpha virt. eigenvalues --    7.12587   7.12587   7.56856   7.77491  43.71428
          Condensed to atoms (all electrons):
               1          2
     1  O    8.806615   0.258217
     2  H    0.258217   0.676951
 Mulliken charges:
               1
     1  O   -1.064832
     2  H    0.064832
 Sum of Mulliken charges =  -1.00000
 Mulliken charges with hydrogens summed into heavy atoms:
               1
     1  O   -1.000000
 APT charges:
               1
     1  O   -0.980352
     2  H   -0.019648
 Sum of APT charges =  -1.00000
 APT charges with hydrogens summed into heavy atoms:
               1
     1  O   -1.000000
 Electronic spatial extent (au):  <R**2>=             21.6817
 Charge=             -1.0000 electrons
 Dipole moment (field-independent basis, Debye):
    X=              0.0000    Y=              0.0000    Z=             -1.4670  Tot=              1.4670
 Quadrupole moment (field-independent basis, Debye-Ang):
   XX=             -8.9443   YY=             -8.9443   ZZ=             -7.3222
   XY=              0.0000   XZ=              0.0000   YZ=              0.0000
 Traceless Quadrupole moment (field-independent basis, Debye-Ang):
   XX=             -0.5407   YY=             -0.5407   ZZ=              1.0814
   XY=              0.0000   XZ=              0.0000   YZ=              0.0000
 Octapole moment (field-independent basis, Debye-Ang**2):
  XXX=              0.0000  YYY=              0.0000  ZZZ=             -0.8869  XYY=              0.0000
  XXY=              0.0000  XXZ=             -0.2150  XZZ=              0.0000  YZZ=              0.0000
  YYZ=             -0.2150  XYZ=              0.0000
 Hexadecapole moment (field-independent basis, Debye-Ang**3):
 XXXX=             -9.0692 YYYY=             -9.0692 ZZZZ=            -10.5020 XXXY=              0.0000
 XXXZ=              0.0000 YYYX=              0.0000 YYYZ=              0.0000 ZZZX=              0.0000
 ZZZY=              0.0000 XXYY=             -3.0231 XXZZ=             -3.4221 YYZZ=             -3.4221
 XXYZ=              0.0000 YYXZ=              0.0000 ZZXY=              0.0000
 N-N= 4.400311171961D+00 E-N=-1.925214058498D+02  KE= 7.566386017992D+01
 Symmetry A1   KE= 6.738765753377D+01
 Symmetry A2   KE= 2.905689722673D-52
 Symmetry B1   KE= 4.138101323074D+00
 Symmetry B2   KE= 4.138101323074D+00
  Exact polarizability:       7.549      -0.000       7.549      -0.000      -0.000      12.274
 Approx polarizability:       6.080      -0.000       6.080      -0.000      -0.000      11.708
   4 Symmetry operations used in ECPInt.
 ECPInt:  NShTT=     153 NPrTT=     431 LenC2=     154 LenP2D=     425.
 LDataN:  DoStor=T MaxTD1= 8 Len=  415
 Calling FoFJK, ICntrl=    100127 FMM=F ISym2X=1 I1Cent= 0 IOpClX= 0 NMat=1 NMatS=1 NMatT=0.
 Full mass-weighted force constant matrix:
 Low frequencies ---  -33.8104  -33.8104    0.0008    0.0008    0.0011 3777.3041
 Diagonal vibrational polarizability:
        0.0000000       0.0000000       0.3300174
 Harmonic frequencies (cm**-1), IR intensities (KM/Mole), Raman scattering
 activities (A**4/AMU), depolarization ratios for plane and unpolarized
 incident light, reduced masses (AMU), force constants (mDyne/A),
 and normal coordinates:
                      1
                     SG
 Frequencies --   3777.3041
 Red. masses --      1.0671
 Frc consts  --      8.9705
 IR Inten    --    174.9716
  Atom  AN      X      Y      Z
     1   8    -0.00  -0.00  -0.06
     2   1    -0.00  -0.00   1.00

 -------------------
 - Thermochemistry -
 -------------------
 Temperature   298.150 Kelvin.  Pressure   1.00000 Atm.
 Atom     1 has atomic number  8 and mass  15.99491
 Atom     2 has atomic number  1 and mass   1.00783
 Molecular mass:    17.00274 amu.
 Principal axes and moments of inertia in atomic units:
                           1         2         3
     Eigenvalues --     0.00000   3.13373   3.13373
           X            0.00000  -0.00000   1.00000
           Y            0.00000   1.00000   0.00000
           Z            1.00000   0.00000   0.00000
 This molecule is a prolate symmetric top.
 Rotational symmetry number  1.
 Rotational temperature (Kelvin)     27.63926
 Rotational constant (GHZ):         575.908764
 Zero-point vibrational energy      22593.3 (Joules/Mol)
                                    5.39993 (Kcal/Mol)
 Vibrational temperatures:   5434.70
          (Kelvin)
 
 Zero-point correction=                           0.008605 (Hartree/Particle)
 Thermal correction to Energy=                    0.010966
 Thermal correction to Enthalpy=                  0.011910
 Thermal correction to Gibbs Free Energy=        -0.007642
 Sum of electronic and zero-point Energies=            -75.775496
 Sum of electronic and thermal Energies=               -75.773136
 Sum of electronic and thermal Enthalpies=             -75.772191
 Sum of electronic and thermal Free Energies=          -75.791743
 
                     E (Thermal)             CV                S
                      KCal/Mol        Cal/Mol-Kelvin    Cal/Mol-Kelvin
 Total                    6.881              4.968             41.150
 Electronic               0.000              0.000              0.000
 Translational            0.889              2.981             34.437
 Rotational               0.592              1.987              6.713
 Vibrational              5.400              0.000              0.000
                       Q            Log10(Q)             Ln(Q)
 Total Bot       0.327315D+04          3.514966          8.093509
 Total V=0       0.297263D+08          7.473141         17.207542
 Vib (Bot)       0.110110D-03         -3.958174         -9.114033
 Vib (V=0)       0.100000D+01          0.000000          0.000000
 Electronic      0.100000D+01          0.000000          0.000000
 Translational   0.275570D+07          6.440232         14.829183
 Rotational      0.107872D+02          1.032908          2.378359
 ***** Axes restored to original set *****
 -------------------------------------------------------------------
 Center     Atomic                   Forces (Hartrees/Bohr)
 Number     Number              X              Y              Z
 -------------------------------------------------------------------
      1        8          -0.000152011   -0.000000000   -0.000000000
      2        1           0.000152011   -0.000000000   -0.000000000
 -------------------------------------------------------------------
 Cartesian Forces:  Max     0.000152011 RMS     0.000087764
 FormGI is forming the generalized inverse of G from B-inverse, IUseBI=4.

 GradGradGradGradGradGradGradGradGradGradGradGradGradGradGradGradGradGrad
 Berny optimization.
 Internal  Forces:  Max     0.000152011 RMS     0.000152011
 Search for a local minimum.
 Step number   1 out of a maximum of    2
 All quantities printed in internal units (Hartrees-Bohrs-Radians)
 Second derivative matrix not updated -- analytic derivatives used.
 The second derivative matrix:
                          R1
           R1           0.51192
 ITU=  0
     Eigenvalues ---    0.51192
 Angle between quadratic step and forces=   0.00 degrees.
 Linear search not attempted -- first point.
 Iteration  1 RMS(Cart)=  0.00020997 RMS(Int)=  0.00000000
 Iteration  2 RMS(Cart)=  0.00000000 RMS(Int)=  0.00000000
 ClnCor:  largest displacement from symmetrization is 0.00D+00 for atom     0.
 Variable       Old X    -DE/DX   Delta X   Delta X   Delta X     New X
                                 (Linear)    (Quad)   (Total)
    R1        1.81805   0.00015   0.00000   0.00030   0.00030   1.81835
         Item               Value     Threshold  Converged?
 Maximum Force            0.000152     0.000450     YES
 RMS     Force            0.000152     0.000300     YES
 Maximum Displacement     0.000148     0.001800     YES
 RMS     Displacement     0.000210     0.001200     YES
 Predicted change in Energy=-2.256933D-08
 Optimization completed.
    -- Stationary point found.
                           ----------------------------
                           !   Optimized Parameters   !
                           ! (Angstroms and Degrees)  !
 --------------------------                            --------------------------
 ! Name  Definition              Value          Derivative Info.                !
 --------------------------------------------------------------------------------
 ! R1    R(1,2)                  0.9621         -DE/DX =    0.0002              !
 --------------------------------------------------------------------------------
 GradGradGradGradGradGradGradGradGradGradGradGradGradGradGradGradGradGrad


 ----------------------------------------------------------------------

 Electric dipole moment (input orientation):
 (Debye = 10**-18 statcoulomb cm , SI units = C m)
                  (au)            (Debye)         (10**-30 SI)
   Tot        0.577156D+00      0.146698D+01      0.489333D+01
   x          0.577156D+00      0.146698D+01      0.489333D+01
   y          0.000000D+00      0.000000D+00      0.000000D+00
   z          0.000000D+00      0.000000D+00      0.000000D+00

 Dipole polarizability, Alpha (input orientation).
 (esu units = cm**3 , SI units = C**2 m**2 J**-1)
 Alpha(0;0):
               (au)            (10**-24 esu)      (10**-40 SI)
   iso        0.912371D+01      0.135199D+01      0.150430D+01
   aniso      0.472520D+01      0.700202D+00      0.779080D+00
   xx         0.122738D+02      0.181880D+01      0.202368D+01
   yx         0.000000D+00      0.000000D+00      0.000000D+00
   yy         0.754864D+01      0.111859D+01      0.124460D+01
   zx         0.000000D+00      0.000000D+00      0.000000D+00
   zy         0.000000D+00      0.000000D+00      0.000000D+00
   zz         0.754864D+01      0.111859D+01      0.124460D+01

 ----------------------------------------------------------------------

 Dipole orientation:
     8         -0.00000000          2.57988693         -1.62876562
     1          0.00000000          2.57988693          0.18928738

 Electric dipole moment (dipole orientation):
 (Debye = 10**-18 statcoulomb cm , SI units = C m)
                  (au)            (Debye)         (10**-30 SI)
   Tot        0.577156D+00      0.146698D+01      0.489333D+01
   x          0.000000D+00      0.000000D+00      0.000000D+00
   y          0.000000D+00      0.000000D+00      0.000000D+00
   z          0.577156D+00      0.146698D+01      0.489333D+01

 Dipole polarizability, Alpha (dipole orientation).
 (esu units = cm**3 , SI units = C**2 m**2 J**-1)
 Alpha(0;0):
               (au)            (10**-24 esu)      (10**-40 SI)
   iso        0.912371D+01      0.135199D+01      0.150430D+01
   aniso      0.472520D+01      0.700202D+00      0.779080D+00
   xx         0.754864D+01      0.111859D+01      0.124460D+01
   yx         0.000000D+00      0.000000D+00      0.000000D+00
   yy         0.754864D+01      0.111859D+01      0.124460D+01
   zx         0.000000D+00      0.000000D+00      0.000000D+00
   zy         0.000000D+00      0.000000D+00      0.000000D+00
   zz         0.122738D+02      0.181880D+01      0.202368D+01

 ----------------------------------------------------------------------
 Unable to Open any file for archive entry.
 1\1\GINC-GRA767\Freq\RwB97XD\def2TZVPP\H1O1(1-)\ARHENDER\16-Mar-2024\0
 \\#N Geom=AllCheck Guess=TCheck SCRF=Check GenChk RwB97XD/def2TZVPP Fr
 eq\\Hydroxide\\-1,1\O,-0.8619056495,1.36521737,0.\H,0.1001665695,1.365
 21737,0.\\Version=ES64L-G16RevC.01\State=1-SG\HF=-75.7841014\RMSD=0.00
 0e+00\RMSF=8.776e-05\ZeroPoint=0.0086053\Thermal=0.0109658\ETot=-75.77
 31356\HTot=-75.7721914\GTot=-75.7917431\Dipole=0.5771559,0.,0.\DipoleD
 eriv=-0.5282178,0.,0.,0.,-1.2064196,0.,0.,0.,-1.2064196,-0.4717822,0.,
 0.,0.,0.2064196,0.,0.,0.,0.2064196\Polar=12.2738398,0.,7.5486397,0.,0.
 ,7.5486397\Quadrupole=0.8040123,-0.4020061,-0.4020061,0.,0.,0.\PG=C*V 
 [C*(H1O1)]\NImag=0\\0.51192166,0.,-0.00004101,0.,0.,-0.00004101,-0.511
 92166,0.,0.,0.51192166,0.,0.00004101,0.,0.,-0.00004101,0.,0.,0.0000410
 1,0.,0.,-0.00004101\\0.00015201,0.,0.,-0.00015201,0.,0.\\\@
 The archive entry for this job was punched.


 FLOATING POINT NUMBERS ARE LIKE SANDPILES:
 EVERY TIME THAT YOU MOVE ONE, YOU LOSE A LITTLE SAND 
 AND YOU PICK UP A LITTLE DIRT.
 Job cpu time:       0 days  0 hours  0 minutes 20.5 seconds.
 Elapsed time:       0 days  0 hours  0 minutes  5.2 seconds.
 File lengths (MBytes):  RWF=      6 Int=      0 D2E=      0 Chk=      1 Scr=      1
 Normal termination of Gaussian 16 at Sat Mar 16 00:01:43 2024.
