 Entering Gaussian System, Link 0=/opt/software/gaussian/g16.c01/g16
 Initial command:
 /opt/software/gaussian/g16.c01/l1.exe "/scratch/arhender/18119275/Gau-136726.inp" -scrdir="/scratch/arhender/18119275/"
 Entering Link 1 = /opt/software/gaussian/g16.c01/l1.exe PID=    136742.
  
 Copyright (c) 1988-2019, Gaussian, Inc.  All Rights Reserved.
  
 This is part of the Gaussian(R) 16 program.  It is based on
 the Gaussian(R) 09 system (copyright 2009, Gaussian, Inc.),
 the Gaussian(R) 03 system (copyright 2003, Gaussian, Inc.),
 the Gaussian(R) 98 system (copyright 1998, Gaussian, Inc.),
 the Gaussian(R) 94 system (copyright 1995, Gaussian, Inc.),
 the Gaussian 92(TM) system (copyright 1992, Gaussian, Inc.),
 the Gaussian 90(TM) system (copyright 1990, Gaussian, Inc.),
 the Gaussian 88(TM) system (copyright 1988, Gaussian, Inc.),
 the Gaussian 86(TM) system (copyright 1986, Carnegie Mellon
 University), and the Gaussian 82(TM) system (copyright 1983,
 Carnegie Mellon University). Gaussian is a federally registered
 trademark of Gaussian, Inc.
  
 This software contains proprietary and confidential information,
 including trade secrets, belonging to Gaussian, Inc.
  
 This software is provided under written license and may be
 used, copied, transmitted, or stored only in accord with that
 written license.
  
 The following legend is applicable only to US Government
 contracts under FAR:
  
                    RESTRICTED RIGHTS LEGEND
  
 Use, reproduction and disclosure by the US Government is
 subject to restrictions as set forth in subparagraphs (a)
 and (c) of the Commercial Computer Software - Restricted
 Rights clause in FAR 52.227-19.
  
 Gaussian, Inc.
 340 Quinnipiac St., Bldg. 40, Wallingford CT 06492
  
  
 ---------------------------------------------------------------
 Warning -- This program may not be used in any manner that
 competes with the business of Gaussian, Inc. or will provide
 assistance to any competitor of Gaussian, Inc.  The licensee
 of this program is prohibited from giving any competitor of
 Gaussian, Inc. access to this program.  By using this program,
 the user acknowledges that Gaussian, Inc. is engaged in the
 business of creating and licensing software in the field of
 computational chemistry and represents and warrants to the
 licensee that it is not a competitor of Gaussian, Inc. and that
 it will not use this program in any manner prohibited above.
 ---------------------------------------------------------------
  

 Cite this work as:
 Gaussian 16, Revision C.01,
 M. J. Frisch, G. W. Trucks, H. B. Schlegel, G. E. Scuseria, 
 M. A. Robb, J. R. Cheeseman, G. Scalmani, V. Barone, 
 G. A. Petersson, H. Nakatsuji, X. Li, M. Caricato, A. V. Marenich, 
 J. Bloino, B. G. Janesko, R. Gomperts, B. Mennucci, H. P. Hratchian, 
 J. V. Ortiz, A. F. Izmaylov, J. L. Sonnenberg, D. Williams-Young, 
 F. Ding, F. Lipparini, F. Egidi, J. Goings, B. Peng, A. Petrone, 
 T. Henderson, D. Ranasinghe, V. G. Zakrzewski, J. Gao, N. Rega, 
 G. Zheng, W. Liang, M. Hada, M. Ehara, K. Toyota, R. Fukuda, 
 J. Hasegawa, M. Ishida, T. Nakajima, Y. Honda, O. Kitao, H. Nakai, 
 T. Vreven, K. Throssell, J. A. Montgomery, Jr., J. E. Peralta, 
 F. Ogliaro, M. J. Bearpark, J. J. Heyd, E. N. Brothers, K. N. Kudin, 
 V. N. Staroverov, T. A. Keith, R. Kobayashi, J. Normand, 
 K. Raghavachari, A. P. Rendell, J. C. Burant, S. S. Iyengar, 
 J. Tomasi, M. Cossi, J. M. Millam, M. Klene, C. Adamo, R. Cammi, 
 J. W. Ochterski, R. L. Martin, K. Morokuma, O. Farkas, 
 J. B. Foresman, and D. J. Fox, Gaussian, Inc., Wallingford CT, 2019.
 
 ******************************************
 Gaussian 16:  ES64L-G16RevC.01  3-Jul-2019
                26-Mar-2024 
 ******************************************
 %chk=HiBL2_confOpt.chk
 %mem=1600MB
 %nprocs=4
 Will use up to    4 processors via shared memory.
 ----------------------------------------------------
 # opt=calcfc freq wb97xd/def2tzvpp geom=connectivity
 ----------------------------------------------------
 1/10=4,18=20,19=15,26=3,38=1,57=2/1,3;
 2/9=110,12=2,17=6,18=5,40=1/2;
 3/5=44,7=202,11=2,25=1,30=1,71=2,74=-58,140=1/1,2,3;
 4//1;
 5/5=2,38=5/2;
 8/6=4,10=90,11=11/1;
 11/6=1,8=1,9=11,15=111,16=1/1,2,10;
 10/6=1,13=1/2;
 6/7=2,8=2,9=2,10=2,28=1/1;
 7/10=1,25=1/1,2,3,16;
 1/10=4,18=20,19=15,26=3/3(2);
 2/9=110/2;
 99//99;
 2/9=110/2;
 3/5=44,7=202,11=2,25=1,30=1,71=1,74=-58/1,2,3;
 4/5=5,16=3,69=1/1;
 5/5=2,38=5/2;
 7//1,2,3,16;
 1/18=20,19=15,26=3/3(-5);
 2/9=110/2;
 6/7=2,8=2,9=2,10=2,19=2,28=1/1;
 99/9=1/99;
 ----------------------------------------------------------------------
 Title Card Required
 ----------------------------------------------------------------------
 Symbolic Z-matrix:
 Charge = -2 Multiplicity = 1
 Si                    0.07217   0.42007  -0.0408 
 O                    -0.64013   1.37744  -1.33217 
 O                     0.93568  -0.6384    1.21144 
 O                     1.61795   0.46911  -0.90405 
 O                    -0.52887  -1.11962  -0.7478 
 O                    -1.84709   0.39367   0.84167 
 O                     0.24879   1.77814   1.04622 
 C                    -2.51269  -0.73555   0.47514 
 H                    -3.60767  -0.57253   0.32162 
 H                    -2.4289   -1.5497    1.23534 
 C                    -1.88918  -1.23959  -0.83805 
 H                    -2.29787  -0.63206  -1.67232 
 H                    -2.17745  -2.29386  -1.02539 
 C                     2.63708  -0.257    -0.33731 
 H                     3.24357  -0.77268  -1.10979 
 H                     3.33164   0.3981    0.23156 
 C                     2.00041  -1.26931   0.62958 
 H                     1.69544  -2.16901   0.05384 
 H                     2.74373  -1.60127   1.38452 
 H                    -0.48286   1.65103   1.65317 
 H                    -1.43188   1.7122   -0.91544 
 

 GradGradGradGradGradGradGradGradGradGradGradGradGradGradGradGradGradGrad
 Berny optimization.
 Initialization pass.
                           ----------------------------
                           !    Initial Parameters    !
                           ! (Angstroms and Degrees)  !
 --------------------------                            --------------------------
 ! Name  Definition              Value          Derivative Info.                !
 --------------------------------------------------------------------------------
 ! R1    R(1,2)                  1.7583         calculate D2E/DX2 analytically  !
 ! R2    R(1,3)                  1.8531         calculate D2E/DX2 analytically  !
 ! R3    R(1,4)                  1.7712         calculate D2E/DX2 analytically  !
 ! R4    R(1,5)                  1.7977         calculate D2E/DX2 analytically  !
 ! R5    R(1,7)                  1.7485         calculate D2E/DX2 analytically  !
 ! R6    R(2,21)                 0.9553         calculate D2E/DX2 analytically  !
 ! R7    R(3,17)                 1.3676         calculate D2E/DX2 analytically  !
 ! R8    R(4,14)                 1.3737         calculate D2E/DX2 analytically  !
 ! R9    R(5,11)                 1.3686         calculate D2E/DX2 analytically  !
 ! R10   R(6,8)                  1.3611         calculate D2E/DX2 analytically  !
 ! R11   R(7,20)                 0.9591         calculate D2E/DX2 analytically  !
 ! R12   R(8,9)                  1.1176         calculate D2E/DX2 analytically  !
 ! R13   R(8,10)                 1.117          calculate D2E/DX2 analytically  !
 ! R14   R(8,11)                 1.5386         calculate D2E/DX2 analytically  !
 ! R15   R(11,12)                1.11           calculate D2E/DX2 analytically  !
 ! R16   R(11,13)                1.1089         calculate D2E/DX2 analytically  !
 ! R17   R(14,15)                1.1093         calculate D2E/DX2 analytically  !
 ! R18   R(14,16)                1.1114         calculate D2E/DX2 analytically  !
 ! R19   R(14,17)                1.5379         calculate D2E/DX2 analytically  !
 ! R20   R(17,18)                1.1108         calculate D2E/DX2 analytically  !
 ! R21   R(17,19)                1.1102         calculate D2E/DX2 analytically  !
 ! A1    A(2,1,4)               88.884          calculate D2E/DX2 analytically  !
 ! A2    A(2,1,5)               92.4105         calculate D2E/DX2 analytically  !
 ! A3    A(2,1,7)               94.2788         calculate D2E/DX2 analytically  !
 ! A4    A(3,1,4)               86.4733         calculate D2E/DX2 analytically  !
 ! A5    A(3,1,5)               86.1208         calculate D2E/DX2 analytically  !
 ! A6    A(3,1,7)               88.6516         calculate D2E/DX2 analytically  !
 ! A7    A(4,1,5)               97.1129         calculate D2E/DX2 analytically  !
 ! A8    A(4,1,7)              101.148          calculate D2E/DX2 analytically  !
 ! A9    A(5,1,7)              160.6499         calculate D2E/DX2 analytically  !
 ! A10   A(1,2,21)             101.8983         calculate D2E/DX2 analytically  !
 ! A11   A(1,3,17)             109.8029         calculate D2E/DX2 analytically  !
 ! A12   A(1,4,14)             115.5795         calculate D2E/DX2 analytically  !
 ! A13   A(1,5,11)             115.6793         calculate D2E/DX2 analytically  !
 ! A14   A(1,7,20)             102.324          calculate D2E/DX2 analytically  !
 ! A15   A(6,8,9)              113.2714         calculate D2E/DX2 analytically  !
 ! A16   A(6,8,10)             112.6279         calculate D2E/DX2 analytically  !
 ! A17   A(6,8,11)             107.6655         calculate D2E/DX2 analytically  !
 ! A18   A(9,8,10)             105.8597         calculate D2E/DX2 analytically  !
 ! A19   A(9,8,11)             109.1219         calculate D2E/DX2 analytically  !
 ! A20   A(10,8,11)            108.1603         calculate D2E/DX2 analytically  !
 ! A21   A(5,11,8)             108.5301         calculate D2E/DX2 analytically  !
 ! A22   A(5,11,12)            111.5642         calculate D2E/DX2 analytically  !
 ! A23   A(5,11,13)            110.6634         calculate D2E/DX2 analytically  !
 ! A24   A(8,11,12)            108.2381         calculate D2E/DX2 analytically  !
 ! A25   A(8,11,13)            110.5056         calculate D2E/DX2 analytically  !
 ! A26   A(12,11,13)           107.3173         calculate D2E/DX2 analytically  !
 ! A27   A(4,14,15)            111.349          calculate D2E/DX2 analytically  !
 ! A28   A(4,14,16)            111.2991         calculate D2E/DX2 analytically  !
 ! A29   A(4,14,17)            107.4692         calculate D2E/DX2 analytically  !
 ! A30   A(15,14,16)           106.7855         calculate D2E/DX2 analytically  !
 ! A31   A(15,14,17)           110.9882         calculate D2E/DX2 analytically  !
 ! A32   A(16,14,17)           108.9606         calculate D2E/DX2 analytically  !
 ! A33   A(3,17,14)            106.6272         calculate D2E/DX2 analytically  !
 ! A34   A(3,17,18)            112.3597         calculate D2E/DX2 analytically  !
 ! A35   A(3,17,19)            111.7082         calculate D2E/DX2 analytically  !
 ! A36   A(14,17,18)           108.7199         calculate D2E/DX2 analytically  !
 ! A37   A(14,17,19)           110.3136         calculate D2E/DX2 analytically  !
 ! A38   A(18,17,19)           107.102          calculate D2E/DX2 analytically  !
 ! A39   L(2,1,3,4,-1)         175.3573         calculate D2E/DX2 analytically  !
 ! A40   L(2,1,3,4,-2)         182.0683         calculate D2E/DX2 analytically  !
 ! D1    D(4,1,2,21)          -161.9636         calculate D2E/DX2 analytically  !
 ! D2    D(5,1,2,21)           100.9631         calculate D2E/DX2 analytically  !
 ! D3    D(7,1,2,21)           -60.867          calculate D2E/DX2 analytically  !
 ! D4    D(4,1,3,17)           -24.6898         calculate D2E/DX2 analytically  !
 ! D5    D(5,1,3,17)            72.6946         calculate D2E/DX2 analytically  !
 ! D6    D(7,1,3,17)          -125.947          calculate D2E/DX2 analytically  !
 ! D7    D(2,1,4,14)          -176.1401         calculate D2E/DX2 analytically  !
 ! D8    D(3,1,4,14)             1.7916         calculate D2E/DX2 analytically  !
 ! D9    D(5,1,4,14)           -83.8499         calculate D2E/DX2 analytically  !
 ! D10   D(7,1,4,14)            89.7184         calculate D2E/DX2 analytically  !
 ! D11   D(2,1,5,11)           -62.0819         calculate D2E/DX2 analytically  !
 ! D12   D(3,1,5,11)           122.7908         calculate D2E/DX2 analytically  !
 ! D13   D(4,1,5,11)          -151.2573         calculate D2E/DX2 analytically  !
 ! D14   D(7,1,5,11)            48.1148         calculate D2E/DX2 analytically  !
 ! D15   D(2,1,7,20)           102.5673         calculate D2E/DX2 analytically  !
 ! D16   D(3,1,7,20)           -81.5905         calculate D2E/DX2 analytically  !
 ! D17   D(4,1,7,20)          -167.7286         calculate D2E/DX2 analytically  !
 ! D18   D(5,1,7,20)            -7.3302         calculate D2E/DX2 analytically  !
 ! D19   D(1,3,17,14)           38.5685         calculate D2E/DX2 analytically  !
 ! D20   D(1,3,17,18)          -80.4452         calculate D2E/DX2 analytically  !
 ! D21   D(1,3,17,19)          159.1559         calculate D2E/DX2 analytically  !
 ! D22   D(1,4,14,15)          140.3171         calculate D2E/DX2 analytically  !
 ! D23   D(1,4,14,16)         -100.6584         calculate D2E/DX2 analytically  !
 ! D24   D(1,4,14,17)           18.5701         calculate D2E/DX2 analytically  !
 ! D25   D(1,5,11,8)           -43.6335         calculate D2E/DX2 analytically  !
 ! D26   D(1,5,11,12)           75.5354         calculate D2E/DX2 analytically  !
 ! D27   D(1,5,11,13)         -165.0505         calculate D2E/DX2 analytically  !
 ! D28   D(6,8,11,5)            41.8468         calculate D2E/DX2 analytically  !
 ! D29   D(6,8,11,12)          -79.391          calculate D2E/DX2 analytically  !
 ! D30   D(6,8,11,13)          163.3606         calculate D2E/DX2 analytically  !
 ! D31   D(9,8,11,5)           165.1639         calculate D2E/DX2 analytically  !
 ! D32   D(9,8,11,12)           43.9261         calculate D2E/DX2 analytically  !
 ! D33   D(9,8,11,13)          -73.3223         calculate D2E/DX2 analytically  !
 ! D34   D(10,8,11,5)          -80.1195         calculate D2E/DX2 analytically  !
 ! D35   D(10,8,11,12)         158.6427         calculate D2E/DX2 analytically  !
 ! D36   D(10,8,11,13)          41.3943         calculate D2E/DX2 analytically  !
 ! D37   D(4,14,17,3)          -36.8047         calculate D2E/DX2 analytically  !
 ! D38   D(4,14,17,18)          84.5539         calculate D2E/DX2 analytically  !
 ! D39   D(4,14,17,19)        -158.2825         calculate D2E/DX2 analytically  !
 ! D40   D(15,14,17,3)        -158.7765         calculate D2E/DX2 analytically  !
 ! D41   D(15,14,17,18)        -37.4179         calculate D2E/DX2 analytically  !
 ! D42   D(15,14,17,19)         79.7457         calculate D2E/DX2 analytically  !
 ! D43   D(16,14,17,3)          83.9102         calculate D2E/DX2 analytically  !
 ! D44   D(16,14,17,18)       -154.7311         calculate D2E/DX2 analytically  !
 ! D45   D(16,14,17,19)        -37.5675         calculate D2E/DX2 analytically  !
 --------------------------------------------------------------------------------
 Trust Radius=3.00D-01 FncErr=1.00D-07 GrdErr=1.00D-06 EigMax=2.50D+02 EigMin=1.00D-04
 Number of steps in this run=    116 maximum allowed number of steps=    126.
 GradGradGradGradGradGradGradGradGradGradGradGradGradGradGradGradGradGrad

                          Input orientation:                          
 ---------------------------------------------------------------------
 Center     Atomic      Atomic             Coordinates (Angstroms)
 Number     Number       Type             X           Y           Z
 ---------------------------------------------------------------------
      1         14           0        0.072169    0.420069   -0.040803
      2          8           0       -0.640132    1.377436   -1.332165
      3          8           0        0.935684   -0.638401    1.211439
      4          8           0        1.617947    0.469112   -0.904049
      5          8           0       -0.528865   -1.119619   -0.747800
      6          8           0       -1.847092    0.393672    0.841668
      7          8           0        0.248785    1.778138    1.046218
      8          6           0       -2.512691   -0.735548    0.475140
      9          1           0       -3.607673   -0.572527    0.321619
     10          1           0       -2.428901   -1.549704    1.235344
     11          6           0       -1.889175   -1.239593   -0.838046
     12          1           0       -2.297867   -0.632056   -1.672322
     13          1           0       -2.177447   -2.293857   -1.025386
     14          6           0        2.637083   -0.257004   -0.337308
     15          1           0        3.243571   -0.772681   -1.109786
     16          1           0        3.331636    0.398104    0.231564
     17          6           0        2.000414   -1.269313    0.629582
     18          1           0        1.695438   -2.169014    0.053839
     19          1           0        2.743733   -1.601271    1.384518
     20          1           0       -0.482861    1.651031    1.653165
     21          1           0       -1.431879    1.712200   -0.915438
 ---------------------------------------------------------------------
                    Distance matrix (angstroms):
                    1          2          3          4          5
     1  Si   0.000000
     2  O    1.758278   0.000000
     3  O    1.853140   3.607869   0.000000
     4  O    1.771166   2.471286   2.483416   0.000000
     5  O    1.797700   2.566933   2.493009   2.675310   0.000000
     6  O    2.112585   2.673966   2.990944   3.880685   2.560113
     7  O    1.748473   2.570494   2.517695   2.718767   3.495745
     8  C    2.878046   3.352243   3.527444   4.518356   2.361918
     9  H    3.828555   3.917098   4.630142   5.467575   3.304849
    10  H    3.429855   4.284851   3.485897   5.002959   2.779923
    11  C    2.690157   2.941616   3.541419   3.901786   1.368569
    12  H    3.063640   2.627137   4.332663   4.139615   2.054708
    13  H    3.659996   3.991972   4.175584   4.696141   2.042966
    14  C    2.669293   3.794901   2.332132   1.373710   3.306937
    15  H    3.552910   4.444728   3.276043   2.055974   3.805611
    16  H    3.270901   4.379416   2.788384   2.057034   4.262171
    17  C    2.649822   4.222110   1.367574   2.349559   2.883894
    18  H    3.057337   4.466901   2.063986   2.807715   2.586770
    19  H    3.640688   5.263421   2.055752   3.285029   3.935564
    20  H    2.166299   3.001963   2.729266   3.514210   3.666504
    21  H    2.167198   0.955297   3.956550   3.293454   2.977035
                    6          7          8          9         10
     6  O    0.000000
     7  O    2.520176   0.000000
     8  C    1.361067   3.777631   0.000000
     9  H    2.074521   4.574160   1.117645   0.000000
    10  H    2.066444   4.275547   1.117041   1.783051   0.000000
    11  C    2.343238   4.150666   1.538600   2.177851   2.164814
    12  H    2.752356   4.436770   2.160660   2.386407   3.051847
    13  H    3.289048   5.172938   2.189131   2.612077   2.393302
    14  C    4.682007   3.429273   5.235384   6.287346   5.459716
    15  H    5.575249   4.485953   5.970588   7.002037   6.187111
    16  H    5.214544   3.474496   5.958243   7.007442   6.163223
    17  C    4.196880   3.539597   4.547183   5.659593   4.479330
    18  H    4.442697   4.319448   4.465498   5.544679   4.334705
    19  H    5.034894   4.214216   5.404298   6.521382   5.175042
    20  H    2.024995   0.959086   3.347195   4.059763   3.769131
    21  H    2.235697   2.584003   3.015515   3.388859   4.032361
                   11         12         13         14         15
    11  C    0.000000
    12  H    1.110021   0.000000
    13  H    1.108905   1.787347   0.000000
    14  C    4.658673   5.126076   5.272753   0.000000
    15  H    5.161098   5.571692   5.631033   1.109267   0.000000
    16  H    5.575212   6.031361   6.259119   1.111389   1.782614
    17  C    4.157369   4.917324   4.609027   1.537853   2.194877
    18  H    3.809033   4.613931   4.022381   2.166904   2.387569
    19  H    5.151159   5.975063   5.523163   2.187033   2.675435
    20  H    4.066886   4.423302   5.060474   4.163728   5.233983
    21  H    2.988008   2.611196   4.076328   4.557242   5.298324
                   16         17         18         19         20
    16  H    0.000000
    17  C    2.170449   0.000000
    18  H    3.049397   1.110834   0.000000
    19  H    2.381687   1.110247   1.786606   0.000000
    20  H    4.259244   3.967718   4.679271   4.589177   0.000000
    21  H    5.072823   4.801785   5.077739   5.805568   2.738996
                   21
    21  H    0.000000
 Stoichiometry    C4H10O6Si(2-)
 Framework group  C1[X(C4H10O6Si)]
 Deg. of freedom    57
 Full point group                 C1      NOp   1
 Largest Abelian subgroup         C1      NOp   1
 Largest concise Abelian subgroup C1      NOp   1
                         Standard orientation:                         
 ---------------------------------------------------------------------
 Center     Atomic      Atomic             Coordinates (Angstroms)
 Number     Number       Type             X           Y           Z
 ---------------------------------------------------------------------
      1         14           0       -0.086640    0.447544    0.052527
      2          8           0        0.643781    1.394145    1.341701
      3          8           0       -0.965191   -0.603768   -1.195280
      4          8           0       -1.608077    0.450658    0.959307
      5          8           0        0.562847   -1.093229    0.712762
      6          8           0        1.807098    0.474621   -0.883442
      7          8           0       -0.319281    1.822043   -1.002836
      8          6           0        2.503813   -0.648223   -0.557388
      9          1           0        3.599447   -0.467040   -0.431342
     10          1           0        2.413856   -1.449488   -1.330475
     11          6           0        1.927171   -1.188645    0.762733
     12          1           0        2.347804   -0.589051    1.596820
     13          1           0        2.240313   -2.240479    0.921660
     14          6           0       -2.629029   -0.284232    0.407336
     15          1           0       -3.203701   -0.825846    1.186361
     16          1           0       -3.351515    0.367896   -0.129254
     17          6           0       -2.001065   -1.265838   -0.596209
     18          1           0       -1.663158   -2.170104   -0.046596
     19          1           0       -2.759054   -1.597881   -1.336376
     20          1           0        0.397189    1.720420   -1.632272
     21          1           0        1.417037    1.751829    0.909581
 ---------------------------------------------------------------------
 Rotational constants (GHZ):           1.5901058           0.8883332           0.8121449
 Standard basis: def2TZVPP (5D, 7F)
 There are   558 symmetry adapted cartesian basis functions of A   symmetry.
 There are   492 symmetry adapted basis functions of A   symmetry.
   492 basis functions,   749 primitive gaussians,   558 cartesian basis functions
    49 alpha electrons       49 beta electrons
       nuclear repulsion energy       878.6783063681 Hartrees.
 NAtoms=   21 NActive=   21 NUniq=   21 SFac= 1.00D+00 NAtFMM=   60 NAOKFM=F Big=F
 Integral buffers will be    131072 words long.
 Raffenetti 2 integral format.
 Two-electron integral symmetry is turned on.
 Nuclear repulsion after empirical dispersion term =      878.6662265079 Hartrees.
 One-electron integrals computed using PRISM.
   1 Symmetry operations used in ECPInt.
 ECPInt:  NShTT=   17020 NPrTT=   47563 LenC2=   16255 LenP2D=   35192.
 LDataN:  DoStor=T MaxTD1= 6 Len=  172
 NBasis=   492 RedAO= T EigKep=  2.52D-04  NBF=   492
 NBsUse=   492 1.00D-06 EigRej= -1.00D+00 NBFU=   492
 ExpMin= 7.01D-02 ExpMax= 4.48D+04 ExpMxC= 1.53D+03 IAcc=3 IRadAn=         5 AccDes= 0.00D+00
 Harris functional with IExCor= 4639 and IRadAn=       5 diagonalized for initial guess.
 HarFok:  IExCor= 4639 AccDes= 0.00D+00 IRadAn=         5 IDoV= 1 UseB2=F ITyADJ=14
 ICtDFT=  3500011 ScaDFX=  1.000000  1.000000  1.000000  1.000000
 FoFCou: FMM=F IPFlag=           0 FMFlag=      100000 FMFlg1=           0
         NFxFlg=           0 DoJE=T BraDBF=F KetDBF=T FulRan=T
         wScrn=  0.000000 ICntrl=       500 IOpCl=  0 I1Cent=   200000004 NGrid=           0
         NMat0=    1 NMatS0=      1 NMatT0=    0 NMatD0=    1 NMtDS0=    0 NMtDT0=    0
 Petite list used in FoFCou.
 Requested convergence on RMS density matrix=1.00D-08 within 128 cycles.
 Requested convergence on MAX density matrix=1.00D-06.
 Requested convergence on             energy=1.00D-06.
 No special actions if energy rises.
 Integral accuracy reduced to 1.0D-05 until final iterations.
 Initial convergence to 1.0D-05 achieved.  Increase integral accuracy.
 SCF Done:  E(RwB97XD) =  -899.454520227     A.U. after   15 cycles
            NFock= 15  Conv=0.70D-08     -V/T= 2.0036
 DoSCS=F DFT=T ScalE2(SS,OS)=  1.000000  1.000000
 Range of M.O.s used for correlation:     1   492
 NBasis=   492 NAE=    49 NBE=    49 NFC=     0 NFV=     0
 NROrb=    492 NOA=    49 NOB=    49 NVA=   443 NVB=   443

 **** Warning!!: The largest alpha MO coefficient is  0.13253216D+02

   1 Symmetry operations used in ECPInt.
 ECPInt:  NShTT=   17020 NPrTT=   47563 LenC2=   16255 LenP2D=   35192.
 LDataN:  DoStor=T MaxTD1= 7 Len=  274
 Symmetrizing basis deriv contribution to polar:
 IMax=3 JMax=2 DiffMx= 0.00D+00
 G2DrvN: will do    22 centers at a time, making    1 passes.
 Calling FoFCou, ICntrl=  3107 FMM=F I1Cent=   0 AccDes= 0.00D+00.
 End of G2Drv F.D. properties file   721 does not exist.
 End of G2Drv F.D. properties file   722 does not exist.
 End of G2Drv F.D. properties file   788 does not exist.
          IDoAtm=111111111111111111111
          Differentiating once with respect to nuclear coordinates.
 CalDSu exits because no D1Ps are significant.
          There are    66 degrees of freedom in the 1st order CPHF.  IDoFFX=6 NUNeed=     0.
     60 vectors produced by pass  0 Test12= 3.29D-14 1.52D-09 XBig12= 9.08D-02 3.76D-02.
 AX will form    60 AO Fock derivatives at one time.
     60 vectors produced by pass  1 Test12= 3.29D-14 1.52D-09 XBig12= 3.28D-02 1.99D-02.
     60 vectors produced by pass  2 Test12= 3.29D-14 1.52D-09 XBig12= 6.19D-04 3.72D-03.
     60 vectors produced by pass  3 Test12= 3.29D-14 1.52D-09 XBig12= 8.95D-06 4.83D-04.
     60 vectors produced by pass  4 Test12= 3.29D-14 1.52D-09 XBig12= 1.27D-07 4.82D-05.
     60 vectors produced by pass  5 Test12= 3.29D-14 1.52D-09 XBig12= 1.18D-09 2.93D-06.
     60 vectors produced by pass  6 Test12= 3.29D-14 1.52D-09 XBig12= 9.45D-12 2.54D-07.
     33 vectors produced by pass  7 Test12= 3.29D-14 1.52D-09 XBig12= 6.34D-14 2.44D-08.
      3 vectors produced by pass  8 Test12= 3.29D-14 1.52D-09 XBig12= 7.04D-16 2.12D-09.
 InvSVY:  IOpt=1 It=  1 EMax= 2.45D-16
 Solved reduced A of dimension   456 with    66 vectors.
 End of Minotr F.D. properties file   721 does not exist.
 End of Minotr F.D. properties file   722 does not exist.
 End of Minotr F.D. properties file   788 does not exist.

 **********************************************************************

            Population analysis using the SCF Density.

 **********************************************************************

 Orbital symmetries:
       Occupied  (A) (A) (A) (A) (A) (A) (A) (A) (A) (A) (A) (A)
                 (A) (A) (A) (A) (A) (A) (A) (A) (A) (A) (A) (A)
                 (A) (A) (A) (A) (A) (A) (A) (A) (A) (A) (A) (A)
                 (A) (A) (A) (A) (A) (A) (A) (A) (A) (A) (A) (A)
                 (A)
       Virtual   (A) (A) (A) (A) (A) (A) (A) (A) (A) (A) (A) (A)
                 (A) (A) (A) (A) (A) (A) (A) (A) (A) (A) (A) (A)
                 (A) (A) (A) (A) (A) (A) (A) (A) (A) (A) (A) (A)
                 (A) (A) (A) (A) (A) (A) (A) (A) (A) (A) (A) (A)
                 (A) (A) (A) (A) (A) (A) (A) (A) (A) (A) (A) (A)
                 (A) (A) (A) (A) (A) (A) (A) (A) (A) (A) (A) (A)
                 (A) (A) (A) (A) (A) (A) (A) (A) (A) (A) (A) (A)
                 (A) (A) (A) (A) (A) (A) (A) (A) (A) (A) (A) (A)
                 (A) (A) (A) (A) (A) (A) (A) (A) (A) (A) (A) (A)
                 (A) (A) (A) (A) (A) (A) (A) (A) (A) (A) (A) (A)
                 (A) (A) (A) (A) (A) (A) (A) (A) (A) (A) (A) (A)
                 (A) (A) (A) (A) (A) (A) (A) (A) (A) (A) (A) (A)
                 (A) (A) (A) (A) (A) (A) (A) (A) (A) (A) (A) (A)
                 (A) (A) (A) (A) (A) (A) (A) (A) (A) (A) (A) (A)
                 (A) (A) (A) (A) (A) (A) (A) (A) (A) (A) (A) (A)
                 (A) (A) (A) (A) (A) (A) (A) (A) (A) (A) (A) (A)
                 (A) (A) (A) (A) (A) (A) (A) (A) (A) (A) (A) (A)
                 (A) (A) (A) (A) (A) (A) (A) (A) (A) (A) (A) (A)
                 (A) (A) (A) (A) (A) (A) (A) (A) (A) (A) (A) (A)
                 (A) (A) (A) (A) (A) (A) (A) (A) (A) (A) (A) (A)
                 (A) (A) (A) (A) (A) (A) (A) (A) (A) (A) (A) (A)
                 (A) (A) (A) (A) (A) (A) (A) (A) (A) (A) (A) (A)
                 (A) (A) (A) (A) (A) (A) (A) (A) (A) (A) (A) (A)
                 (A) (A) (A) (A) (A) (A) (A) (A) (A) (A) (A) (A)
                 (A) (A) (A) (A) (A) (A) (A) (A) (A) (A) (A) (A)
                 (A) (A) (A) (A) (A) (A) (A) (A) (A) (A) (A) (A)
                 (A) (A) (A) (A) (A) (A) (A) (A) (A) (A) (A) (A)
                 (A) (A) (A) (A) (A) (A) (A) (A) (A) (A) (A) (A)
                 (A) (A) (A) (A) (A) (A) (A) (A) (A) (A) (A) (A)
                 (A) (A) (A) (A) (A) (A) (A) (A) (A) (A) (A) (A)
                 (A) (A) (A) (A) (A) (A) (A) (A) (A) (A) (A) (A)
                 (A) (A) (A) (A) (A) (A) (A) (A) (A) (A) (A) (A)
                 (A) (A) (A) (A) (A) (A) (A) (A) (A) (A) (A) (A)
                 (A) (A) (A) (A) (A) (A) (A) (A) (A) (A) (A) (A)
                 (A) (A) (A) (A) (A) (A) (A) (A) (A) (A) (A) (A)
                 (A) (A) (A) (A) (A) (A) (A) (A) (A) (A) (A) (A)
                 (A) (A) (A) (A) (A) (A) (A) (A) (A) (A) (A)
 The electronic state is 1-A.
 Alpha  occ. eigenvalues --  -65.96892 -18.88818 -18.87841 -18.87239 -18.86753
 Alpha  occ. eigenvalues --  -18.86253 -18.86092 -10.02372 -10.01703 -10.01416
 Alpha  occ. eigenvalues --  -10.01385  -5.07362  -3.42081  -3.41846  -3.41817
 Alpha  occ. eigenvalues --   -0.79828  -0.77343  -0.73359  -0.73057  -0.71672
 Alpha  occ. eigenvalues --   -0.70071  -0.50019  -0.48632  -0.37934  -0.36770
 Alpha  occ. eigenvalues --   -0.29210  -0.26901  -0.25501  -0.24903  -0.24041
 Alpha  occ. eigenvalues --   -0.21644  -0.20405  -0.18716  -0.17461  -0.17193
 Alpha  occ. eigenvalues --   -0.16346  -0.15369  -0.09968  -0.08106  -0.06702
 Alpha  occ. eigenvalues --   -0.05971  -0.05754  -0.03648  -0.02837  -0.02034
 Alpha  occ. eigenvalues --   -0.01440  -0.00889   0.01117   0.01917
 Alpha virt. eigenvalues --    0.37707   0.38116   0.41091   0.41849   0.42183
 Alpha virt. eigenvalues --    0.42417   0.42676   0.46509   0.46892   0.47527
 Alpha virt. eigenvalues --    0.48661   0.49470   0.52113   0.53624   0.53997
 Alpha virt. eigenvalues --    0.55098   0.55188   0.55907   0.57353   0.58962
 Alpha virt. eigenvalues --    0.59528   0.62908   0.66316   0.67330   0.68801
 Alpha virt. eigenvalues --    0.69087   0.69502   0.69999   0.71214   0.71890
 Alpha virt. eigenvalues --    0.72869   0.73198   0.73904   0.75143   0.75542
 Alpha virt. eigenvalues --    0.76231   0.76839   0.77043   0.78442   0.78811
 Alpha virt. eigenvalues --    0.79095   0.79620   0.80971   0.82459   0.83073
 Alpha virt. eigenvalues --    0.83943   0.84541   0.85358   0.86018   0.87375
 Alpha virt. eigenvalues --    0.88978   0.89856   0.90719   0.91839   0.92573
 Alpha virt. eigenvalues --    0.93327   0.95193   0.97134   0.97986   0.99211
 Alpha virt. eigenvalues --    1.02044   1.03805   1.04838   1.05310   1.07241
 Alpha virt. eigenvalues --    1.07614   1.09857   1.11266   1.12323   1.13377
 Alpha virt. eigenvalues --    1.13618   1.14314   1.16280   1.17852   1.18669
 Alpha virt. eigenvalues --    1.19680   1.20112   1.21181   1.22336   1.23069
 Alpha virt. eigenvalues --    1.24102   1.25397   1.26929   1.28131   1.29395
 Alpha virt. eigenvalues --    1.31601   1.32489   1.34436   1.34786   1.35960
 Alpha virt. eigenvalues --    1.37016   1.38944   1.40126   1.40830   1.41751
 Alpha virt. eigenvalues --    1.43374   1.43627   1.45623   1.46493   1.46901
 Alpha virt. eigenvalues --    1.48673   1.49654   1.50535   1.52494   1.53952
 Alpha virt. eigenvalues --    1.54489   1.55914   1.56633   1.58143   1.58435
 Alpha virt. eigenvalues --    1.59731   1.60762   1.62304   1.63296   1.65461
 Alpha virt. eigenvalues --    1.65938   1.67646   1.68575   1.69690   1.70600
 Alpha virt. eigenvalues --    1.71765   1.73009   1.73402   1.75240   1.76566
 Alpha virt. eigenvalues --    1.77386   1.78619   1.79828   1.81328   1.84588
 Alpha virt. eigenvalues --    1.85733   1.85935   1.88147   1.89404   1.90860
 Alpha virt. eigenvalues --    1.91003   1.92272   1.93027   1.94907   1.96659
 Alpha virt. eigenvalues --    1.98905   2.01581   2.04395   2.05137   2.08229
 Alpha virt. eigenvalues --    2.13548   2.15634   2.18707   2.19769   2.22247
 Alpha virt. eigenvalues --    2.25650   2.27868   2.29789   2.31889   2.33416
 Alpha virt. eigenvalues --    2.35199   2.37348   2.37906   2.39879   2.40191
 Alpha virt. eigenvalues --    2.41223   2.42715   2.44083   2.45951   2.47249
 Alpha virt. eigenvalues --    2.48121   2.50314   2.51271   2.54543   2.55189
 Alpha virt. eigenvalues --    2.56974   2.57408   2.60393   2.61357   2.64371
 Alpha virt. eigenvalues --    2.66558   2.70007   2.70828   2.70998   2.72255
 Alpha virt. eigenvalues --    2.75350   2.77157   2.77594   2.82375   2.84152
 Alpha virt. eigenvalues --    2.84266   2.88079   2.89687   2.95253   2.95796
 Alpha virt. eigenvalues --    2.97846   3.00151   3.00765   3.01237   3.02837
 Alpha virt. eigenvalues --    3.04555   3.05183   3.07487   3.14275   3.14590
 Alpha virt. eigenvalues --    3.16218   3.18214   3.19329   3.20280   3.21160
 Alpha virt. eigenvalues --    3.22711   3.24759   3.25279   3.26561   3.29665
 Alpha virt. eigenvalues --    3.31534   3.33447   3.34002   3.34796   3.36027
 Alpha virt. eigenvalues --    3.38631   3.39211   3.40136   3.40727   3.42825
 Alpha virt. eigenvalues --    3.44924   3.46384   3.47676   3.49158   3.50033
 Alpha virt. eigenvalues --    3.51432   3.52065   3.52810   3.53638   3.54303
 Alpha virt. eigenvalues --    3.54833   3.59024   3.59822   3.61804   3.63392
 Alpha virt. eigenvalues --    3.64924   3.66873   3.68057   3.68273   3.71214
 Alpha virt. eigenvalues --    3.72161   3.75104   3.76095   3.76897   3.78519
 Alpha virt. eigenvalues --    3.80273   3.81050   3.83948   3.84429   3.85484
 Alpha virt. eigenvalues --    3.87163   3.90185   3.91570   3.92186   3.92582
 Alpha virt. eigenvalues --    3.93651   3.95146   3.96236   3.98571   4.00458
 Alpha virt. eigenvalues --    4.01130   4.04997   4.06563   4.07003   4.08462
 Alpha virt. eigenvalues --    4.09508   4.10605   4.12841   4.13706   4.15143
 Alpha virt. eigenvalues --    4.17398   4.18509   4.20521   4.21301   4.21609
 Alpha virt. eigenvalues --    4.22710   4.25608   4.29192   4.32897   4.34292
 Alpha virt. eigenvalues --    4.34674   4.35918   4.37314   4.37647   4.38531
 Alpha virt. eigenvalues --    4.40573   4.42473   4.44680   4.45946   4.47889
 Alpha virt. eigenvalues --    4.48700   4.49525   4.50692   4.52617   4.54557
 Alpha virt. eigenvalues --    4.55953   4.56734   4.57253   4.57952   4.62128
 Alpha virt. eigenvalues --    4.63609   4.65337   4.65795   4.67483   4.69050
 Alpha virt. eigenvalues --    4.69996   4.71724   4.72571   4.73882   4.74972
 Alpha virt. eigenvalues --    4.76741   4.81954   4.82559   4.87697   4.93714
 Alpha virt. eigenvalues --    4.94906   4.96186   4.96886   4.98882   5.02533
 Alpha virt. eigenvalues --    5.03336   5.04823   5.07869   5.10302   5.13774
 Alpha virt. eigenvalues --    5.16396   5.18009   5.19053   5.19396   5.22693
 Alpha virt. eigenvalues --    5.24810   5.28077   5.29747   5.30887   5.32233
 Alpha virt. eigenvalues --    5.35951   5.37988   5.39574   5.40661   5.42705
 Alpha virt. eigenvalues --    5.43045   5.44687   5.48694   5.49933   5.50875
 Alpha virt. eigenvalues --    5.53222   5.56544   5.62060   5.62902   5.63973
 Alpha virt. eigenvalues --    5.65070   5.67832   5.70187   5.71907   5.73686
 Alpha virt. eigenvalues --    5.76593   5.79333   5.82521   5.83017   5.84443
 Alpha virt. eigenvalues --    5.85812   5.86730   5.87735   5.88473   5.90420
 Alpha virt. eigenvalues --    5.90975   5.94601   5.94833   5.96847   5.98510
 Alpha virt. eigenvalues --    5.99803   6.00615   6.04748   6.05313   6.09706
 Alpha virt. eigenvalues --    6.10331   6.13919   6.15690   6.16746   6.30788
 Alpha virt. eigenvalues --    6.36980   6.40736   6.44358   6.49702   6.50395
 Alpha virt. eigenvalues --    6.51991   6.54603   6.56069   6.58690   6.62713
 Alpha virt. eigenvalues --    6.65410   6.67448   6.69525   6.89474   6.91769
 Alpha virt. eigenvalues --    6.96841   6.98057   7.00141   7.01964   7.04106
 Alpha virt. eigenvalues --    7.05054   7.07648   7.09539   7.10651   7.13399
 Alpha virt. eigenvalues --    7.14769   7.16931   7.18697   7.19979   7.22450
 Alpha virt. eigenvalues --    7.25537   7.30093   7.31166   7.33827   7.40695
 Alpha virt. eigenvalues --    7.41321   7.44512   7.46616   7.49076   7.54796
 Alpha virt. eigenvalues --    7.56749   7.60456   7.63294   7.66109   7.71249
 Alpha virt. eigenvalues --    7.76532   7.79370   7.85668   7.90488   7.92676
 Alpha virt. eigenvalues --    8.02608   8.06529  12.17928  23.68831  23.70729
 Alpha virt. eigenvalues --   23.81988  23.83382  44.27181  44.33391  44.53762
 Alpha virt. eigenvalues --   44.60273  44.64887  44.70805
          Condensed to atoms (all electrons):
               1          2          3          4          5          6
     1  Si  11.496168   0.387436   0.273287   0.369521   0.300539   0.186163
     2  O    0.387436   8.047404   0.005697  -0.044362  -0.069780  -0.042330
     3  O    0.273287   0.005697   8.210012  -0.037101  -0.055057  -0.015773
     4  O    0.369521  -0.044362  -0.037101   8.080419  -0.032999   0.002018
     5  O    0.300539  -0.069780  -0.055057  -0.032999   8.155967  -0.025854
     6  O    0.186163  -0.042330  -0.015773   0.002018  -0.025854   8.439782
     7  O    0.439377  -0.077536  -0.070719  -0.027965   0.001276  -0.072604
     8  C   -0.031969   0.000236   0.008868  -0.001869  -0.127347   0.403414
     9  H    0.004410  -0.000930  -0.000160   0.000043   0.007159  -0.045147
    10  H   -0.007239  -0.000671   0.002068  -0.000004   0.019879  -0.068377
    11  C   -0.030298  -0.001362  -0.000175   0.001626   0.380492  -0.163407
    12  H   -0.012061   0.030192  -0.000842   0.000725  -0.066116   0.015759
    13  H    0.004942   0.000904  -0.001122  -0.000219  -0.044708   0.012881
    14  C   -0.079521   0.003792  -0.129054   0.384439  -0.007531  -0.002635
    15  H   -0.005642  -0.000112   0.009856  -0.050964   0.000900   0.000017
    16  H    0.013069   0.000169   0.015304  -0.069051  -0.000480   0.000043
    17  C   -0.050638  -0.002973   0.407588  -0.119232   0.001492  -0.001627
    18  H    0.012547   0.000334  -0.069725   0.013025   0.023129   0.000765
    19  H   -0.012747   0.000034  -0.044784   0.006855  -0.000007  -0.000150
    20  H   -0.060682   0.005207   0.005185   0.002665  -0.000646   0.017073
    21  H   -0.081652   0.318042  -0.000318   0.004897   0.006963   0.022226
               7          8          9         10         11         12
     1  Si   0.439377  -0.031969   0.004410  -0.007239  -0.030298  -0.012061
     2  O   -0.077536   0.000236  -0.000930  -0.000671  -0.001362   0.030192
     3  O   -0.070719   0.008868  -0.000160   0.002068  -0.000175  -0.000842
     4  O   -0.027965  -0.001869   0.000043  -0.000004   0.001626   0.000725
     5  O    0.001276  -0.127347   0.007159   0.019879   0.380492  -0.066116
     6  O   -0.072604   0.403414  -0.045147  -0.068377  -0.163407   0.015759
     7  O    8.045931   0.004053  -0.000688   0.000690  -0.005660   0.000422
     8  C    0.004053   4.889905   0.219336   0.352400   0.247436  -0.105196
     9  H   -0.000688   0.219336   1.038810  -0.130464  -0.008870  -0.014154
    10  H    0.000690   0.352400  -0.130464   0.979442  -0.100456   0.029332
    11  C   -0.005660   0.247436  -0.008870  -0.100456   4.961279   0.343488
    12  H    0.000422  -0.105196  -0.014154   0.029332   0.343488   0.926717
    13  H    0.000005  -0.014726   0.018861  -0.018823   0.268208  -0.098466
    14  C   -0.001816  -0.000171  -0.000060   0.000115   0.002278  -0.000300
    15  H   -0.000447   0.000022  -0.000001  -0.000007   0.000145   0.000022
    16  H    0.002058  -0.000084   0.000001  -0.000004  -0.000017  -0.000003
    17  C    0.001618   0.000361  -0.000062   0.001322  -0.006257  -0.000235
    18  H   -0.001094  -0.001280   0.000036   0.000022   0.001315   0.000690
    19  H   -0.000602   0.000191  -0.000008   0.000004   0.000262   0.000002
    20  H    0.310218   0.001750  -0.000753  -0.001302   0.001949  -0.000474
    21  H   -0.002115   0.002897  -0.002189   0.001470  -0.007940   0.002753
              13         14         15         16         17         18
     1  Si   0.004942  -0.079521  -0.005642   0.013069  -0.050638   0.012547
     2  O    0.000904   0.003792  -0.000112   0.000169  -0.002973   0.000334
     3  O   -0.001122  -0.129054   0.009856   0.015304   0.407588  -0.069725
     4  O   -0.000219   0.384439  -0.050964  -0.069051  -0.119232   0.013025
     5  O   -0.044708  -0.007531   0.000900  -0.000480   0.001492   0.023129
     6  O    0.012881  -0.002635   0.000017   0.000043  -0.001627   0.000765
     7  O    0.000005  -0.001816  -0.000447   0.002058   0.001618  -0.001094
     8  C   -0.014726  -0.000171   0.000022  -0.000084   0.000361  -0.001280
     9  H    0.018861  -0.000060  -0.000001   0.000001  -0.000062   0.000036
    10  H   -0.018823   0.000115  -0.000007  -0.000004   0.001322   0.000022
    11  C    0.268208   0.002278   0.000145  -0.000017  -0.006257   0.001315
    12  H   -0.098466  -0.000300   0.000022  -0.000003  -0.000235   0.000690
    13  H    0.928740  -0.000469   0.000019  -0.000003   0.001205  -0.000644
    14  C   -0.000469   4.974879   0.279678   0.338651   0.200251  -0.121563
    15  H    0.000019   0.279678   0.957858  -0.130045  -0.004392  -0.013675
    16  H   -0.000003   0.338651  -0.130045   0.942962  -0.067593   0.027632
    17  C    0.001205   0.200251  -0.004392  -0.067593   4.904284   0.362439
    18  H   -0.000644  -0.121563  -0.013675   0.027632   0.362439   0.930333
    19  H   -0.000131   0.013359   0.017133  -0.028865   0.259019  -0.122567
    20  H   -0.000112  -0.000466   0.000065  -0.000040  -0.000542   0.000030
    21  H    0.000492  -0.001184   0.000008   0.000118  -0.000207   0.000107
              19         20         21
     1  Si  -0.012747  -0.060682  -0.081652
     2  O    0.000034   0.005207   0.318042
     3  O   -0.044784   0.005185  -0.000318
     4  O    0.006855   0.002665   0.004897
     5  O   -0.000007  -0.000646   0.006963
     6  O   -0.000150   0.017073   0.022226
     7  O   -0.000602   0.310218  -0.002115
     8  C    0.000191   0.001750   0.002897
     9  H   -0.000008  -0.000753  -0.002189
    10  H    0.000004  -0.001302   0.001470
    11  C    0.000262   0.001949  -0.007940
    12  H    0.000002  -0.000474   0.002753
    13  H   -0.000131  -0.000112   0.000492
    14  C    0.013359  -0.000466  -0.001184
    15  H    0.017133   0.000065   0.000008
    16  H   -0.028865  -0.000040   0.000118
    17  C    0.259019  -0.000542  -0.000207
    18  H   -0.122567   0.000030   0.000107
    19  H    0.970597   0.000012  -0.000023
    20  H    0.000012   0.575731  -0.000485
    21  H   -0.000023  -0.000485   0.609828
 Mulliken charges:
               1
     1  Si   0.884991
     2  O   -0.559392
     3  O   -0.513037
     4  O   -0.482468
     5  O   -0.467270
     6  O   -0.662237
     7  O   -0.544401
     8  C    0.151773
     9  H   -0.085171
    10  H   -0.059398
    11  C    0.115965
    12  H   -0.052254
    13  H   -0.056835
    14  C    0.147328
    15  H   -0.060436
    16  H   -0.043823
    17  C    0.114179
    18  H   -0.041857
    19  H   -0.057586
    20  H    0.145617
    21  H    0.126312
 Sum of Mulliken charges =  -2.00000
 Mulliken charges with hydrogens summed into heavy atoms:
               1
     1  Si   0.884991
     2  O   -0.433080
     3  O   -0.513037
     4  O   -0.482468
     5  O   -0.467270
     6  O   -0.662237
     7  O   -0.398784
     8  C    0.007203
    11  C    0.006876
    14  C    0.043069
    17  C    0.014736
 APT charges:
               1
     1  Si  -0.113485
     2  O   -0.554926
     3  O   -0.390908
     4  O   -0.377370
     5  O   -0.404633
     6  O   -0.523932
     7  O   -0.558186
     8  C   -0.560831
     9  H    0.308986
    10  H    0.210266
    11  C   -0.445650
    12  H    0.205480
    13  H    0.298418
    14  C   -0.489324
    15  H    0.318980
    16  H    0.322015
    17  C   -0.439370
    18  H    0.168292
    19  H    0.330555
    20  H    0.341874
    21  H    0.353750
 Sum of APT charges =  -2.00000
 APT charges with hydrogens summed into heavy atoms:
               1
     1  Si  -0.113485
     2  O   -0.201175
     3  O   -0.390908
     4  O   -0.377370
     5  O   -0.404633
     6  O   -0.523932
     7  O   -0.216313
     8  C   -0.041579
    11  C    0.058248
    14  C    0.151671
    17  C    0.059476
 Electronic spatial extent (au):  <R**2>=           1740.3863
 Charge=             -2.0000 electrons
 Dipole moment (field-independent basis, Debye):
    X=              0.1855    Y=             -2.4856    Z=             -0.2923  Tot=              2.5096
 Quadrupole moment (field-independent basis, Debye-Ang):
   XX=           -103.6246   YY=            -96.9872   ZZ=            -95.9262
   XY=              2.9309   XZ=              0.9964   YZ=             -1.8406
 Traceless Quadrupole moment (field-independent basis, Debye-Ang):
   XX=             -4.7786   YY=              1.8588   ZZ=              2.9198
   XY=              2.9309   XZ=              0.9964   YZ=             -1.8406
 Octapole moment (field-independent basis, Debye-Ang**2):
  XXX=             -8.9048  YYY=              3.5514  ZZZ=             -7.3915  XYY=              5.4554
  XXY=             14.0894  XXZ=              6.7360  XZZ=              0.3194  YZZ=             -0.3792
  YYZ=             -0.8197  XYZ=              2.6022
 Hexadecapole moment (field-independent basis, Debye-Ang**3):
 XXXX=          -1629.3843 YYYY=           -667.4303 ZZZZ=           -465.3917 XXXY=             15.4844
 XXXZ=             31.5228 YYYX=             20.6940 YYYZ=              3.9956 ZZZX=            -10.8111
 ZZZY=            -21.7158 XXYY=           -364.8623 XXZZ=           -346.2407 YYZZ=           -196.5561
 XXYZ=              0.8139 YYXZ=            -11.1603 ZZXY=              4.6397
 N-N= 8.786662265079D+02 E-N=-3.917747108303D+03  KE= 8.962531868009D+02
  Exact polarizability:       0.000       0.000       0.000       0.000       0.000       0.000
 Approx polarizability:     118.343       0.524     108.739       0.292      -1.057     103.517
   1 Symmetry operations used in ECPInt.
 ECPInt:  NShTT=   17020 NPrTT=   47563 LenC2=   16255 LenP2D=   35192.
 LDataN:  DoStor=T MaxTD1= 8 Len=  415
 Calling FoFJK, ICntrl=    100127 FMM=F ISym2X=0 I1Cent= 0 IOpClX= 0 NMat=1 NMatS=1 NMatT=0.
 ***** Axes restored to original set *****
 -------------------------------------------------------------------
 Center     Atomic                   Forces (Hartrees/Bohr)
 Number     Number              X              Y              Z
 -------------------------------------------------------------------
      1       14          -0.004973529    0.000079292    0.001724261
      2        8          -0.000669314    0.000270218   -0.000508147
      3        8          -0.002730648   -0.000377113    0.000701043
      4        8          -0.001833326   -0.000243603    0.000690373
      5        8           0.000174537   -0.000838002   -0.003087705
      6        8           0.008067436   -0.002057727   -0.000345175
      7        8          -0.000340454    0.002036428    0.000690330
      8        6           0.002559048    0.000031232    0.000066071
      9        1           0.000123505    0.000304754    0.000123622
     10        1           0.000111326   -0.000035571    0.000002019
     11        6           0.000184001   -0.000589860   -0.000722379
     12        1          -0.000077899   -0.000056442   -0.000030867
     13        1          -0.000050958   -0.000050232    0.000000095
     14        6          -0.001458475    0.000365091    0.000924311
     15        1          -0.000070797    0.000012755    0.000096910
     16        1          -0.000127030    0.000049212    0.000085504
     17        6          -0.001405491    0.000283106    0.000849280
     18        1          -0.000067727    0.000011096    0.000066060
     19        1          -0.000126146    0.000051860    0.000098549
     20        1           0.002761729    0.000267578   -0.001515070
     21        1          -0.000049790    0.000485931    0.000090917
 -------------------------------------------------------------------
 Cartesian Forces:  Max     0.008067436 RMS     0.001536567
 FormGI is forming the generalized inverse of G from B-inverse, IUseBI=4.

 GradGradGradGradGradGradGradGradGradGradGradGradGradGradGradGradGradGrad
 Berny optimization.
 Internal  Forces:  Max     0.030071487 RMS     0.005050289
 Search for a local minimum.
 Step number   1 out of a maximum of  116
 All quantities printed in internal units (Hartrees-Bohrs-Radians)
 Mixed Optimization -- RFO/linear search
 Second derivative matrix not updated -- analytic derivatives used.
 ITU=  0
     Eigenvalues ---   -0.02187   0.00141   0.00217   0.00333   0.00667
     Eigenvalues ---    0.00704   0.01031   0.02376   0.04183   0.04449
     Eigenvalues ---    0.04514   0.04829   0.05025   0.05320   0.05454
     Eigenvalues ---    0.07133   0.07435   0.07851   0.08541   0.08717
     Eigenvalues ---    0.09471   0.09979   0.10228   0.10331   0.10496
     Eigenvalues ---    0.10931   0.11106   0.11296   0.14035   0.14255
     Eigenvalues ---    0.15167   0.15460   0.17511   0.20943   0.23151
     Eigenvalues ---    0.23597   0.23997   0.24622   0.24864   0.25044
     Eigenvalues ---    0.26575   0.27497   0.27654   0.28038   0.28395
     Eigenvalues ---    0.28708   0.28973   0.29363   0.33880   0.37123
     Eigenvalues ---    0.40255   0.42587   0.44245   0.54354   0.55789
     Eigenvalues ---    0.69720   1.67533
 RFO step:  Lambda=-3.81604095D-02 EMin=-2.18721112D-02
 Linear search not attempted -- first point.
 Maximum step size (   0.300) exceeded in Quadratic search.
    -- Step size scaled by   0.383
 Iteration  1 RMS(Cart)=  0.11559539 RMS(Int)=  0.00867815
 Iteration  2 RMS(Cart)=  0.01320466 RMS(Int)=  0.00155479
 Iteration  3 RMS(Cart)=  0.00076419 RMS(Int)=  0.00150629
 Iteration  4 RMS(Cart)=  0.00000605 RMS(Int)=  0.00150629
 Iteration  5 RMS(Cart)=  0.00000008 RMS(Int)=  0.00150629
 Variable       Old X    -DE/DX   Delta X   Delta X   Delta X     New X
                                 (Linear)    (Quad)   (Total)
    R1        3.32266   0.00101   0.00000   0.03723   0.03723   3.35989
    R2        3.50193  -0.00188   0.00000  -0.01214  -0.01227   3.48966
    R3        3.34702  -0.00348   0.00000   0.01721   0.01711   3.36413
    R4        3.39716   0.00067   0.00000   0.10260   0.10260   3.49976
    R5        3.30414   0.00152   0.00000   0.05921   0.05921   3.36334
    R6        1.80525   0.00025   0.00000  -0.00495  -0.00495   1.80030
    R7        2.58434  -0.00254   0.00000  -0.00103  -0.00097   2.58337
    R8        2.59593   0.00012   0.00000  -0.00533  -0.00525   2.59068
    R9        2.58622  -0.01057   0.00000  -0.01802  -0.01802   2.56820
   R10        2.57204   0.00215   0.00000   0.02687   0.02687   2.59892
   R11        1.81241  -0.00310   0.00000  -0.00803  -0.00803   1.80438
   R12        2.11204  -0.00009   0.00000  -0.01388  -0.01388   2.09816
   R13        2.11090   0.00003   0.00000  -0.01140  -0.01140   2.09951
   R14        2.90753  -0.00511   0.00000  -0.01012  -0.01012   2.89741
   R15        2.09764   0.00002   0.00000   0.00297   0.00297   2.10061
   R16        2.09553   0.00006   0.00000   0.00214   0.00214   2.09767
   R17        2.09621  -0.00011   0.00000   0.00271   0.00271   2.09892
   R18        2.10022  -0.00001   0.00000   0.00279   0.00279   2.10301
   R19        2.90612   0.00038   0.00000   0.00235   0.00250   2.90862
   R20        2.09917  -0.00002   0.00000  -0.00092  -0.00092   2.09825
   R21        2.09806  -0.00003   0.00000   0.00173   0.00173   2.09980
    A1        1.55132   0.00125   0.00000  -0.01041  -0.01093   1.54039
    A2        1.61287  -0.00003   0.00000  -0.02345  -0.02969   1.58317
    A3        1.64547  -0.00093   0.00000  -0.01597  -0.02231   1.62317
    A4        1.50924   0.00220   0.00000   0.00562   0.00588   1.51512
    A5        1.50309  -0.00041   0.00000   0.00797   0.01400   1.51709
    A6        1.54726  -0.00009   0.00000   0.01858   0.02463   1.57189
    A7        1.69494  -0.00234   0.00000  -0.08688  -0.08486   1.61008
    A8        1.76537  -0.00211   0.00000  -0.09313  -0.09109   1.67427
    A9        2.80387   0.00437   0.00000   0.18335   0.18262   2.98649
   A10        1.77846   0.00031   0.00000   0.01445   0.01445   1.79291
   A11        1.91642  -0.00068   0.00000   0.00129   0.00106   1.91748
   A12        2.01724  -0.00240   0.00000  -0.00995  -0.01017   2.00707
   A13        2.01898  -0.03007   0.00000  -0.10424  -0.10424   1.91474
   A14        1.78589   0.00038   0.00000   0.01006   0.01006   1.79595
   A15        1.97696   0.00537   0.00000  -0.01118  -0.01082   1.96614
   A16        1.96573   0.00110   0.00000  -0.01253  -0.01271   1.95302
   A17        1.87912  -0.00992   0.00000  -0.03198  -0.03188   1.84724
   A18        1.84760   0.00009   0.00000   0.00882   0.00810   1.85570
   A19        1.90454   0.00313   0.00000   0.04248   0.04231   1.94684
   A20        1.88775   0.00042   0.00000   0.00808   0.00763   1.89539
   A21        1.89421  -0.02915   0.00000  -0.06735  -0.06734   1.82687
   A22        1.94716   0.00656   0.00000   0.01308   0.01268   1.95984
   A23        1.93144   0.01161   0.00000   0.03199   0.03191   1.96335
   A24        1.88911   0.00793   0.00000   0.01092   0.01076   1.89987
   A25        1.92869   0.00644   0.00000   0.01223   0.01248   1.94116
   A26        1.87304  -0.00277   0.00000   0.00024  -0.00013   1.87291
   A27        1.94341  -0.00059   0.00000   0.00182   0.00177   1.94517
   A28        1.94254  -0.00021   0.00000   0.00108   0.00110   1.94364
   A29        1.87569   0.00130   0.00000   0.00440   0.00446   1.88015
   A30        1.86376   0.00020   0.00000  -0.00080  -0.00080   1.86295
   A31        1.93711  -0.00040   0.00000  -0.00489  -0.00489   1.93222
   A32        1.90172  -0.00033   0.00000  -0.00183  -0.00187   1.89985
   A33        1.86099  -0.00040   0.00000   0.00330   0.00337   1.86436
   A34        1.96105   0.00032   0.00000  -0.00185  -0.00183   1.95922
   A35        1.94968  -0.00024   0.00000  -0.00045  -0.00051   1.94917
   A36        1.89752  -0.00010   0.00000  -0.00196  -0.00202   1.89550
   A37        1.92533   0.00047   0.00000  -0.00021  -0.00018   1.92515
   A38        1.86928  -0.00004   0.00000   0.00107   0.00107   1.87035
   A39        3.06056   0.00345   0.00000  -0.00479  -0.00505   3.05551
   A40        3.17769  -0.00020   0.00000   0.00868   0.00873   3.18642
    D1       -2.82680   0.00014   0.00000   0.02715   0.02717  -2.79963
    D2        1.76214   0.00243   0.00000   0.11419   0.11169   1.87383
    D3       -1.06233  -0.00187   0.00000  -0.06692  -0.06444  -1.12677
    D4       -0.43092  -0.00008   0.00000   0.01035   0.01040  -0.42051
    D5        1.26876  -0.00257   0.00000  -0.07794  -0.07608   1.19268
    D6       -2.19819   0.00211   0.00000   0.10518   0.10330  -2.09489
    D7       -3.07422  -0.00036   0.00000  -0.00051  -0.00045  -3.07467
    D8        0.03127  -0.00016   0.00000  -0.00919  -0.00917   0.02210
    D9       -1.46346  -0.00020   0.00000  -0.02417  -0.02922  -1.49268
   D10        1.56588   0.00034   0.00000   0.01733   0.02232   1.58820
   D11       -1.08353  -0.00392   0.00000  -0.07539  -0.07520  -1.15873
   D12        2.14310  -0.00743   0.00000  -0.07187  -0.07238   2.07072
   D13       -2.63994  -0.00508   0.00000  -0.05848  -0.05965  -2.69958
   D14        0.83976  -0.00224   0.00000   0.00212   0.00361   0.84337
   D15        1.79014  -0.00031   0.00000   0.04696   0.04743   1.83757
   D16       -1.42402   0.00293   0.00000   0.03918   0.03897  -1.38506
   D17       -2.92742   0.00062   0.00000   0.02631   0.02743  -2.89999
   D18       -0.12794  -0.00221   0.00000  -0.03240  -0.03377  -0.16171
   D19        0.67315  -0.00060   0.00000  -0.00863  -0.00872   0.66442
   D20       -1.40403  -0.00041   0.00000  -0.00728  -0.00735  -1.41139
   D21        2.77779  -0.00041   0.00000  -0.00703  -0.00709   2.77070
   D22        2.44899   0.00011   0.00000   0.00397   0.00394   2.45293
   D23       -1.75682  -0.00017   0.00000   0.00488   0.00483  -1.75199
   D24        0.32411   0.00012   0.00000   0.00602   0.00598   0.33009
   D25       -0.76155  -0.00156   0.00000   0.01505   0.01478  -0.74677
   D26        1.31834  -0.00646   0.00000  -0.00666  -0.00687   1.31147
   D27       -2.88067   0.00210   0.00000   0.02354   0.02401  -2.85666
   D28        0.73036  -0.00528   0.00000  -0.02762  -0.02743   0.70294
   D29       -1.38564  -0.00074   0.00000  -0.01024  -0.01013  -1.39577
   D30        2.85118  -0.00570   0.00000  -0.02386  -0.02371   2.82747
   D31        2.88265  -0.00300   0.00000  -0.03537  -0.03561   2.84704
   D32        0.76665   0.00154   0.00000  -0.01798  -0.01832   0.74833
   D33       -1.27972  -0.00342   0.00000  -0.03160  -0.03190  -1.31162
   D34       -1.39835  -0.00104   0.00000   0.00146   0.00166  -1.39669
   D35        2.76884   0.00350   0.00000   0.01885   0.01895   2.78779
   D36        0.72247  -0.00146   0.00000   0.00523   0.00537   0.72784
   D37       -0.64236  -0.00044   0.00000   0.00022   0.00016  -0.64221
   D38        1.47574  -0.00035   0.00000  -0.00117  -0.00120   1.47454
   D39       -2.76255  -0.00018   0.00000  -0.00115  -0.00120  -2.76375
   D40       -2.77117  -0.00031   0.00000  -0.00189  -0.00192  -2.77309
   D41       -0.65307  -0.00022   0.00000  -0.00327  -0.00328  -0.65634
   D42        1.39183  -0.00006   0.00000  -0.00326  -0.00327   1.38855
   D43        1.46451  -0.00012   0.00000   0.00306   0.00303   1.46754
   D44       -2.70057  -0.00003   0.00000   0.00167   0.00167  -2.69890
   D45       -0.65568   0.00014   0.00000   0.00169   0.00167  -0.65400
         Item               Value     Threshold  Converged?
 Maximum Force            0.030071     0.000450     NO 
 RMS     Force            0.005050     0.000300     NO 
 Maximum Displacement     0.606872     0.001800     NO 
 RMS     Displacement     0.127171     0.001200     NO 
 Predicted change in Energy=-1.193866D-02
 GradGradGradGradGradGradGradGradGradGradGradGradGradGradGradGradGradGrad

                          Input orientation:                          
 ---------------------------------------------------------------------
 Center     Atomic      Atomic             Coordinates (Angstroms)
 Number     Number       Type             X           Y           Z
 ---------------------------------------------------------------------
      1         14           0       -0.018470    0.415526   -0.027640
      2          8           0       -0.711014    1.375608   -1.354229
      3          8           0        0.818794   -0.644918    1.231152
      4          8           0        1.542928    0.462263   -0.881479
      5          8           0       -0.516843   -1.154932   -0.873315
      6          8           0       -1.525949    0.268841    0.816230
      7          8           0        0.280254    1.851511    0.980537
      8          6           0       -2.329574   -0.796213    0.482666
      9          1           0       -3.409182   -0.537191    0.493614
     10          1           0       -2.205152   -1.645941    1.187525
     11          6           0       -1.872366   -1.245328   -0.910208
     12          1           0       -2.319510   -0.568861   -1.670533
     13          1           0       -2.223368   -2.273909   -1.136046
     14          6           0        2.547318   -0.261215   -0.292217
     15          1           0        3.169376   -0.784030   -1.049428
     16          1           0        3.233258    0.395504    0.288020
     17          6           0        1.895399   -1.271844    0.668352
     18          1           0        1.602069   -2.172609    0.089174
     19          1           0        2.627250   -1.600346    1.437225
     20          1           0       -0.406635    1.794679    1.641343
     21          1           0       -1.496705    1.742578   -0.959751
 ---------------------------------------------------------------------
                    Distance matrix (angstroms):
                    1          2          3          4          5
     1  Si   0.000000
     2  O    1.777979   0.000000
     3  O    1.846648   3.620363   0.000000
     4  O    1.780222   2.477488   2.492675   0.000000
     5  O    1.851994   2.583139   2.544174   2.618787   0.000000
     6  O    1.733818   2.569035   2.550477   3.512497   2.428989
     7  O    1.779805   2.580741   2.566123   2.644136   3.620887
     8  C    2.658933   3.272724   3.239652   4.294290   2.292021
     9  H    3.560379   3.788592   4.293175   5.235760   3.258178
    10  H    3.241581   4.221695   3.185624   4.772149   2.708974
    11  C    2.640889   2.900896   3.491168   3.818498   1.359035
    12  H    2.993810   2.543278   4.274870   4.074832   2.056367
    13  H    3.650097   3.956487   4.184733   4.662235   2.057515
    14  C    2.666693   3.797866   2.335738   1.370930   3.244301
    15  H    3.556030   4.451333   3.278053   2.055915   3.709015
    16  H    3.267075   4.383476   2.793136   2.056550   4.220878
    17  C    2.644715   4.230038   1.367062   2.352305   2.865191
    18  H    3.055853   4.474774   2.061910   2.808597   2.540047
    19  H    3.634475   5.271862   2.055681   3.287324   3.927125
    20  H    2.199599   3.040019   2.760718   3.455540   3.877609
    21  H    2.194328   0.952676   3.982678   3.299197   3.059929
                    6          7          8          9         10
     6  O    0.000000
     7  O    2.407116   0.000000
     8  C    1.375288   3.750935   0.000000
     9  H    2.073725   4.422095   1.110299   0.000000
    10  H    2.065324   4.295608   1.111011   1.777787   0.000000
    11  C    2.322348   4.218898   1.533245   2.198630   2.161416
    12  H    2.741436   4.432284   2.165191   2.423204   3.056415
    13  H    3.280755   5.269453   2.194333   2.660477   2.407002
    14  C    4.254541   3.350088   4.966965   6.014448   5.166534
    15  H    5.160939   4.406116   5.708407   6.761607   5.884929
    16  H    4.790104   3.364486   5.692379   6.710752   5.878172
    17  C    3.755157   3.530085   4.255714   5.358062   4.150182
    18  H    4.034078   4.328425   4.184151   5.286851   3.997334
    19  H    4.596581   4.199080   5.111548   6.201549   4.839064
    20  H    2.064427   0.954836   3.428257   3.971170   3.908769
    21  H    2.308000   2.633280   3.036395   3.311674   4.073665
                   11         12         13         14         15
    11  C    0.000000
    12  H    1.111594   0.000000
    13  H    1.110038   1.789444   0.000000
    14  C    4.569902   5.067585   5.246183   0.000000
    15  H    5.064715   5.528104   5.595439   1.110703   0.000000
    16  H    5.495041   5.966503   6.239271   1.112865   1.784418
    17  C    4.085169   4.871348   4.606977   1.539175   2.193569
    18  H    3.732333   4.587740   4.018134   2.166191   2.383489
    19  H    5.087536   5.932332   5.532080   2.188751   2.672773
    20  H    4.230889   4.495991   5.250507   4.085485   5.165059
    21  H    3.011837   2.554402   4.085498   4.562336   5.306986
                   16         17         18         19         20
    16  H    0.000000
    17  C    2.171305   0.000000
    18  H    3.048856   1.110345   0.000000
    19  H    2.381457   1.111164   1.787659   0.000000
    20  H    4.127710   3.955962   4.709935   4.557666   0.000000
    21  H    5.073864   4.821186   5.102091   5.824744   2.820755
                   21
    21  H    0.000000
 Stoichiometry    C4H10O6Si(2-)
 Framework group  C1[X(C4H10O6Si)]
 Deg. of freedom    57
 Full point group                 C1      NOp   1
 Largest Abelian subgroup         C1      NOp   1
 Largest concise Abelian subgroup C1      NOp   1
                         Standard orientation:                         
 ---------------------------------------------------------------------
 Center     Atomic      Atomic             Coordinates (Angstroms)
 Number     Number       Type             X           Y           Z
 ---------------------------------------------------------------------
      1         14           0       -0.013290    0.457163    0.017614
      2          8           0        0.735427    1.449710    1.288631
      3          8           0       -0.896181   -0.642291   -1.174784
      4          8           0       -1.503745    0.432185    0.990809
      5          8           0        0.621891   -1.087600    0.817697
      6          8           0        1.428883    0.379806   -0.941697
      7          8           0       -0.456096    1.876708   -0.960406
      8          6           0        2.304631   -0.646435   -0.674656
      9          1           0        3.366909   -0.337558   -0.769135
     10          1           0        2.165109   -1.501733   -1.369884
     11          6           0        1.978887   -1.114900    0.748464
     12          1           0        2.452164   -0.417629    1.473352
     13          1           0        2.393780   -2.125840    0.943525
     14          6           0       -2.516431   -0.337757    0.479823
     15          1           0       -3.052552   -0.888138    1.281892
     16          1           0       -3.275298    0.285809   -0.043393
     17          6           0       -1.895320   -1.317981   -0.531336
     18          1           0       -1.516203   -2.203566    0.020820
     19          1           0       -2.668936   -1.680895   -1.241617
     20          1           0        0.179001    1.851176   -1.672945
     21          1           0        1.470053    1.852381    0.835011
 ---------------------------------------------------------------------
 Rotational constants (GHZ):           1.5509267           0.9641478           0.8701080
 Standard basis: def2TZVPP (5D, 7F)
 There are   558 symmetry adapted cartesian basis functions of A   symmetry.
 There are   492 symmetry adapted basis functions of A   symmetry.
   492 basis functions,   749 primitive gaussians,   558 cartesian basis functions
    49 alpha electrons       49 beta electrons
       nuclear repulsion energy       894.0573189113 Hartrees.
 NAtoms=   21 NActive=   21 NUniq=   21 SFac= 1.00D+00 NAtFMM=   60 NAOKFM=F Big=F
 Integral buffers will be    131072 words long.
 Raffenetti 2 integral format.
 Two-electron integral symmetry is turned on.
 Nuclear repulsion after empirical dispersion term =      894.0450122471 Hartrees.
 One-electron integrals computed using PRISM.
   1 Symmetry operations used in ECPInt.
 ECPInt:  NShTT=   17020 NPrTT=   47563 LenC2=   16327 LenP2D=   35513.
 LDataN:  DoStor=T MaxTD1= 6 Len=  172
 NBasis=   492 RedAO= T EigKep=  2.42D-04  NBF=   492
 NBsUse=   492 1.00D-06 EigRej= -1.00D+00 NBFU=   492
 Initial guess from the checkpoint file:  "PbiLmL_to_HbiL2_IRCRevere_reactantOpt.chk"
 B after Tr=     0.000000   -0.000000   -0.000000
         Rot=    0.999596    0.009813   -0.024349   -0.010874 Ang=   3.26 deg.
 ExpMin= 7.01D-02 ExpMax= 4.48D+04 ExpMxC= 1.53D+03 IAcc=3 IRadAn=         5 AccDes= 0.00D+00
 Harris functional with IExCor= 4639 and IRadAn=       5 diagonalized for initial guess.
 HarFok:  IExCor= 4639 AccDes= 0.00D+00 IRadAn=         5 IDoV= 1 UseB2=F ITyADJ=14
 ICtDFT=  3500011 ScaDFX=  1.000000  1.000000  1.000000  1.000000
 FoFCou: FMM=F IPFlag=           0 FMFlag=      100000 FMFlg1=           0
         NFxFlg=           0 DoJE=T BraDBF=F KetDBF=T FulRan=T
         wScrn=  0.000000 ICntrl=       500 IOpCl=  0 I1Cent=   200000004 NGrid=           0
         NMat0=    1 NMatS0=      1 NMatT0=    0 NMatD0=    1 NMtDS0=    0 NMtDT0=    0
 Petite list used in FoFCou.
 Requested convergence on RMS density matrix=1.00D-08 within 128 cycles.
 Requested convergence on MAX density matrix=1.00D-06.
 Requested convergence on             energy=1.00D-06.
 No special actions if energy rises.
 Integral accuracy reduced to 1.0D-05 until final iterations.
 Initial convergence to 1.0D-05 achieved.  Increase integral accuracy.
 SCF Done:  E(RwB97XD) =  -899.456811416     A.U. after   14 cycles
            NFock= 14  Conv=0.41D-08     -V/T= 2.0033
   1 Symmetry operations used in ECPInt.
 ECPInt:  NShTT=   17020 NPrTT=   47563 LenC2=   16327 LenP2D=   35513.
 LDataN:  DoStor=T MaxTD1= 7 Len=  274
 Calling FoFJK, ICntrl=      2127 FMM=F ISym2X=0 I1Cent= 0 IOpClX= 0 NMat=1 NMatS=1 NMatT=0.
 ***** Axes restored to original set *****
 -------------------------------------------------------------------
 Center     Atomic                   Forces (Hartrees/Bohr)
 Number     Number              X              Y              Z
 -------------------------------------------------------------------
      1       14           0.025268028    0.003248077   -0.007572075
      2        8          -0.001073125   -0.000851935   -0.002851706
      3        8           0.002303585   -0.004008151   -0.001265172
      4        8           0.000447607   -0.001144992    0.000175641
      5        8           0.003709462   -0.002507794   -0.011597996
      6        8          -0.035403342   -0.001536494    0.016889036
      7        8           0.002537205    0.004750085   -0.001165574
      8        6          -0.001122000   -0.002867069   -0.000896414
      9        1           0.000539762    0.002643117    0.000480813
     10        1           0.001334705    0.001406701    0.000163402
     11        6           0.000403233   -0.001438206    0.002847824
     12        1          -0.000628596   -0.000653437   -0.000180527
     13        1           0.000087304   -0.000566637    0.000736748
     14        6          -0.001799524    0.000833760    0.000458438
     15        1           0.000270431   -0.000062875    0.000130103
     16        1           0.000112594   -0.000057170    0.000254938
     17        6           0.000477414    0.000937096    0.002086677
     18        1          -0.000144979   -0.000141426    0.000083136
     19        1           0.000554429   -0.000138914   -0.000018665
     20        1           0.002192922   -0.000573820    0.000863557
     21        1          -0.000067115    0.002730083    0.000377817
 -------------------------------------------------------------------
 Cartesian Forces:  Max     0.035403342 RMS     0.006329681

 GradGradGradGradGradGradGradGradGradGradGradGradGradGradGradGradGradGrad
 Berny optimization.
 Using GEDIIS/GDIIS optimizer.
 FormGI is forming the generalized inverse of G from B-inverse, IUseBI=4.
 Internal  Forces:  Max     0.119520107 RMS     0.019104050
 Search for a local minimum.
 Step number   2 out of a maximum of  116
 All quantities printed in internal units (Hartrees-Bohrs-Radians)
 Mixed Optimization -- RFO/linear search
 Update second derivatives using D2CorX and points    1    2
 DE= -2.29D-03 DEPred=-1.19D-02 R= 1.92D-01
 Trust test= 1.92D-01 RLast= 3.88D-01 DXMaxT set to 3.00D-01
 ITU=  0  0
 Use linear search instead of GDIIS.
     Eigenvalues ---    0.00141   0.00216   0.00333   0.00668   0.00704
     Eigenvalues ---    0.01011   0.02293   0.04182   0.04444   0.04511
     Eigenvalues ---    0.04822   0.05022   0.05322   0.05395   0.07121
     Eigenvalues ---    0.07403   0.07775   0.08250   0.08604   0.09164
     Eigenvalues ---    0.09835   0.10079   0.10223   0.10331   0.10508
     Eigenvalues ---    0.11003   0.11290   0.12099   0.14090   0.14398
     Eigenvalues ---    0.15232   0.15485   0.17496   0.21078   0.23141
     Eigenvalues ---    0.23620   0.24105   0.24695   0.24870   0.25067
     Eigenvalues ---    0.26618   0.27506   0.27657   0.28040   0.28423
     Eigenvalues ---    0.28724   0.28973   0.29369   0.37111   0.38965
     Eigenvalues ---    0.40854   0.42626   0.45546   0.54500   0.56065
     Eigenvalues ---    0.77614   3.30015
 RFO step:  Lambda=-1.45865915D-02 EMin= 1.40967774D-03
 Quartic linear search produced a step of -0.31497.
 Iteration  1 RMS(Cart)=  0.08451974 RMS(Int)=  0.00333746
 Iteration  2 RMS(Cart)=  0.00566355 RMS(Int)=  0.00045868
 Iteration  3 RMS(Cart)=  0.00001722 RMS(Int)=  0.00045855
 Iteration  4 RMS(Cart)=  0.00000001 RMS(Int)=  0.00045855
 Variable       Old X    -DE/DX   Delta X   Delta X   Delta X     New X
                                 (Linear)    (Quad)   (Total)
    R1        3.35989   0.00330  -0.01173   0.00267  -0.00906   3.35083
    R2        3.48966   0.00324   0.00386  -0.00535  -0.00143   3.48823
    R3        3.36413  -0.00008  -0.00539  -0.03006  -0.03546   3.32867
    R4        3.49976   0.00921  -0.03232   0.03238   0.00007   3.49983
    R5        3.36334   0.00399  -0.01865   0.02922   0.01057   3.37391
    R6        1.80030   0.00126   0.00156   0.00048   0.00204   1.80234
    R7        2.58337  -0.00180   0.00030  -0.00594  -0.00566   2.57772
    R8        2.59068   0.00009   0.00165   0.00235   0.00395   2.59463
    R9        2.56820   0.03435   0.00567   0.00361   0.00928   2.57748
   R10        2.59892  -0.01778  -0.00846   0.00021  -0.00825   2.59066
   R11        1.80438  -0.00094   0.00253  -0.00557  -0.00304   1.80133
   R12        2.09816   0.00010   0.00437   0.00016   0.00454   2.10270
   R13        2.09951  -0.00082   0.00359  -0.00384  -0.00025   2.09926
   R14        2.89741   0.02533   0.00319   0.00412   0.00731   2.90472
   R15        2.10061  -0.00002  -0.00094   0.00207   0.00113   2.10174
   R16        2.09767   0.00035  -0.00067   0.00336   0.00269   2.10035
   R17        2.09892   0.00009  -0.00085  -0.00030  -0.00116   2.09777
   R18        2.10301   0.00017  -0.00088  -0.00055  -0.00143   2.10158
   R19        2.90862  -0.00044  -0.00079   0.00243   0.00167   2.91029
   R20        2.09825   0.00011   0.00029   0.00056   0.00085   2.09910
   R21        2.09980   0.00039  -0.00055   0.00128   0.00074   2.10053
    A1        1.54039   0.00042   0.00344   0.05511   0.05873   1.59912
    A2        1.58317  -0.00107   0.00935  -0.02679  -0.01479   1.56838
    A3        1.62317  -0.00151   0.00703  -0.02373  -0.01368   1.60949
    A4        1.51512  -0.00139  -0.00185   0.02742   0.02538   1.54050
    A5        1.51709   0.00056  -0.00441   0.01670   0.01187   1.52896
    A6        1.57189   0.00165  -0.00776   0.01247   0.00453   1.57642
    A7        1.61008  -0.00269   0.02673  -0.04876  -0.02247   1.58762
    A8        1.67427  -0.00350   0.02869  -0.06474  -0.03624   1.63803
    A9        2.98649   0.00663  -0.05752   0.11997   0.06255   3.04904
   A10        1.79291   0.00173  -0.00455   0.02105   0.01650   1.80941
   A11        1.91748   0.00152  -0.00033  -0.00740  -0.00802   1.90946
   A12        2.00707   0.00020   0.00320  -0.02227  -0.01941   1.98766
   A13        1.91474   0.11952   0.03283  -0.02880   0.00403   1.91877
   A14        1.79595   0.00112  -0.00317   0.01596   0.01279   1.80874
   A15        1.96614  -0.02861   0.00341  -0.03131  -0.02785   1.93828
   A16        1.95302  -0.01504   0.00400  -0.00913  -0.00526   1.94776
   A17        1.84724   0.05955   0.01004   0.02920   0.03920   1.88644
   A18        1.85570   0.00040  -0.00255   0.01290   0.01056   1.86626
   A19        1.94684  -0.01134  -0.01333  -0.00081  -0.01402   1.93283
   A20        1.89539  -0.00557  -0.00240  -0.00077  -0.00314   1.89225
   A21        1.82687   0.10461   0.02121   0.02379   0.04492   1.87179
   A22        1.95984  -0.02495  -0.00399   0.00573   0.00156   1.96141
   A23        1.96335  -0.03878  -0.01005  -0.00646  -0.01632   1.94703
   A24        1.89987  -0.01400  -0.00339  -0.00147  -0.00516   1.89471
   A25        1.94116  -0.03750  -0.00393  -0.01355  -0.01750   1.92366
   A26        1.87291   0.01013   0.00004  -0.00778  -0.00781   1.86511
   A27        1.94517  -0.00016  -0.00056  -0.00224  -0.00269   1.94248
   A28        1.94364  -0.00030  -0.00035  -0.00264  -0.00299   1.94065
   A29        1.88015   0.00119  -0.00141   0.01303   0.01146   1.89161
   A30        1.86295   0.00009   0.00025   0.00040   0.00062   1.86358
   A31        1.93222  -0.00060   0.00154  -0.00556  -0.00395   1.92827
   A32        1.89985  -0.00026   0.00059  -0.00342  -0.00282   1.89703
   A33        1.86436  -0.00117  -0.00106   0.00491   0.00357   1.86793
   A34        1.95922   0.00015   0.00058  -0.00213  -0.00153   1.95769
   A35        1.94917   0.00073   0.00016   0.00325   0.00356   1.95273
   A36        1.89550   0.00015   0.00064  -0.00242  -0.00160   1.89390
   A37        1.92515   0.00029   0.00006  -0.00389  -0.00389   1.92127
   A38        1.87035  -0.00013  -0.00034  -0.00001  -0.00039   1.86997
   A39        3.05551  -0.00097   0.00159   0.08253   0.08411   3.13962
   A40        3.18642   0.00032  -0.00275   0.00247  -0.00052   3.18590
    D1       -2.79963   0.00158  -0.00856   0.09993   0.09122  -2.70841
    D2        1.87383   0.00424  -0.03518   0.14729   0.11339   1.98722
    D3       -1.12677  -0.00187   0.02030   0.03840   0.05757  -1.06920
    D4       -0.42051   0.00038  -0.00328   0.04393   0.04086  -0.37965
    D5        1.19268  -0.00228   0.02396  -0.00750   0.01657   1.20925
    D6       -2.09489   0.00398  -0.03254   0.10960   0.07734  -2.01755
    D7       -3.07467  -0.00042   0.00014  -0.04038  -0.04039  -3.11506
    D8        0.02210  -0.00074   0.00289  -0.04284  -0.03987  -0.01777
[...]
 597,0.00070462,0.00022489,0.00013932,-0.04516338,0.08195541,-0.1346319
 8,0.00133899,-0.00282000,0.00304264,0.05238304,-0.09929296,0.14467700,
 -0.01723446,-0.03735238,-0.02404056,-0.00394715,0.00836843,0.00007804,
 0.00365741,0.00136146,0.00592040,0.00382038,0.00076886,0.00073281,-0.2
 5429267,-0.05271352,0.02206281,-0.01120226,-0.00934786,-0.00493095,-0.
 00122817,0.00140011,0.00138217,-0.06633047,0.01301436,0.01653456,-0.00
 882734,0.00807311,0.03007263,0.00207720,-0.00112262,-0.01654927,0.4996
 7004,-0.01832965,-0.01126119,-0.00748221,0.00118966,0.00007137,0.00038
 169,0.00133389,-0.00001162,0.00122476,-0.00190835,0.00013659,-0.000088
 93,-0.03571236,-0.09450182,-0.00472444,-0.01144661,-0.03349200,-0.0386
 9458,-0.00007422,0.00011076,0.00098358,0.00329903,-0.06964972,-0.00935
 730,0.00234722,0.00077800,-0.00119193,-0.00313763,0.00402440,0.0211739
 6,0.01950399,0.55607037,-0.00737828,-0.00072317,0.00628267,-0.00105564
 ,0.00005688,-0.00152975,0.00023420,-0.00038206,-0.00295320,-0.00183465
 ,-0.00086588,0.00067940,0.03996983,0.00692308,-0.08016310,-0.00014099,
 -0.02337859,-0.01401700,0.00083712,0.00068104,-0.00056590,0.00693748,-
 0.01686411,-0.16395100,-0.00515975,0.00368361,0.00127396,0.00428169,-0
 .00608170,-0.02320999,0.03919028,-0.00096246,0.46650731,-0.00070103,0.
 01053080,0.00329881,0.00165165,-0.00133227,0.00112954,-0.00128170,-0.0
 0054366,-0.00213148,-0.00125245,-0.00127983,0.00005451,-0.05025530,0.0
 0449499,-0.01769694,0.00103875,-0.00075697,-0.00100480,0.00030619,-0.0
 0071214,0.00006120,0.00303716,-0.00166323,0.00523270,0.00169519,-0.000
 49461,-0.00057574,0.00110012,0.00019622,0.00164530,-0.09814937,0.05644
 868,-0.07246824,0.13746187,-0.00142342,-0.00171487,-0.00151237,-0.0006
 1486,0.00091718,-0.00006017,0.00016487,0.00008701,0.00019839,0.0003841
 4,0.00002039,0.00009648,-0.00181484,0.01248016,-0.00689884,0.00058646,
 0.00172653,0.00090753,0.00005739,0.00019475,0.00013602,-0.00298002,0.0
 0270826,-0.00533320,-0.00111276,0.00053294,0.00091264,-0.00068279,0.00
 128157,-0.00152012,0.05850368,-0.10912776,0.06882731,-0.06636658,0.110
 22619,0.00027340,0.00337229,0.00041782,0.00102151,-0.00099950,0.000749
 42,-0.00067797,-0.00023996,-0.00015051,-0.00041783,-0.00032085,0.00005
 493,-0.00593794,-0.00592703,0.01140358,0.00084821,-0.00166597,0.003149
 82,-0.00001983,-0.00041005,0.00007799,-0.01614755,0.02158770,-0.023369
 54,0.00122990,0.00017461,0.00108204,0.00129212,-0.00194106,-0.00670262
 ,-0.06631688,0.06457484,-0.13410247,0.08194127,-0.07582935,0.14427791,
 -0.00040485,0.00421089,0.00616474,0.00068739,-0.00173109,0.00004650,-0
 .00045381,0.00025871,-0.00087576,-0.00200433,-0.00026883,-0.00040186,-
 0.02327331,-0.04221467,-0.00693348,0.00173042,0.00061935,0.00174870,0.
 00022195,-0.00013556,-0.00034069,0.00290410,0.00572224,-0.00219941,-0.
 00025096,-0.00065834,-0.00088419,0.00024508,-0.00015644,-0.00046186,-0
 .04597776,-0.01272438,-0.00345105,0.00411705,0.01517294,0.00250589,0.0
 6203825,0.00410295,0.00383756,0.00450536,-0.00043514,-0.00158596,0.000
 27494,-0.00124883,0.00065055,-0.00080612,-0.00186373,-0.00005012,-0.00
 033653,-0.02143033,-0.00678971,-0.00167605,-0.00061753,-0.00001255,-0.
 00444163,-0.00055755,-0.00044478,-0.00037676,-0.00056790,-0.01028147,0
 .00559588,0.00089576,-0.00030324,-0.00121398,-0.00067799,0.00195882,-0
 .00112283,-0.01325644,-0.24320149,-0.03061838,0.00196853,-0.01963162,-
 0.00211231,0.03273465,0.27632739,0.00152904,-0.00057912,-0.00247856,0.
 00028042,-0.00022329,0.00067231,-0.00041560,0.00035433,0.00005572,0.00
 012441,0.00005217,0.00014383,0.00308475,0.00621067,0.00449791,-0.00051
 685,-0.00377885,-0.00633823,-0.00049837,-0.00024320,0.00024192,-0.0061
 3607,-0.02940763,0.00092245,0.00142632,0.00054614,-0.00025888,-0.00075
 511,0.00079247,0.00105818,-0.00323479,-0.02586339,-0.05482122,0.000215
 65,0.02009806,0.00321763,0.00466149,0.03201387,0.05313505,-0.04413010,
 0.00711338,0.00881364,0.00227149,0.00034969,0.00024661,-0.04394033,-0.
 00467389,0.02331352,-0.18362882,0.05001339,-0.06510911,0.00452719,0.00
 236969,-0.00082964,0.00104532,0.00068575,-0.00131165,0.00044011,-0.004
 28498,-0.00635532,-0.00014890,-0.00062485,0.00031320,0.00043192,0.0000
 4078,-0.00022795,0.00006996,0.00042011,-0.00022402,-0.00191212,-0.0007
 6753,0.00042179,0.00074975,-0.00016298,0.00021205,0.00048844,0.0007154
 8,-0.00000963,0.55024637,0.01658532,0.00302662,-0.00601000,0.00086782,
 0.00013205,-0.00019201,0.01012307,0.00738839,0.00216155,0.06622709,-0.
 10196419,0.04264221,-0.00345890,-0.00252432,0.00092187,0.00005575,-0.0
 0109575,0.00061741,-0.00317049,0.00004588,0.00077135,-0.00019594,0.000
 25704,-0.00031413,-0.00008146,-0.00002084,0.00012486,-0.00011408,-0.00
 029764,0.00014599,0.00018084,-0.00054662,0.00000687,-0.00010992,0.0000
 5704,-0.00003292,-0.00035836,-0.00029891,0.00002493,-0.02219348,0.4853
 8361,-0.01557063,-0.00146263,0.01758321,0.00485580,-0.00225120,0.00139
 738,0.02421644,0.00961453,-0.02275688,-0.08682049,0.04746294,-0.145569
 21,0.00406153,0.00265095,-0.00115062,0.00009841,0.00057113,-0.00120108
 ,-0.00003135,-0.00260046,-0.00623293,0.00001136,-0.00050403,0.00028147
 ,0.00019913,-0.00001096,-0.00016270,-0.00002698,0.00030005,-0.00025688
 ,-0.00117090,-0.00022973,0.00037230,0.00033578,-0.00006740,0.00008286,
 0.00048425,0.00055605,-0.00000154,-0.01283298,0.04345242,0.48560774,0.
 00709180,0.00155548,-0.00328594,-0.00191436,0.00104102,-0.00079052,-0.
 00237965,-0.00287902,0.00264470,-0.03654266,0.01695909,0.00194446,-0.0
 0132160,-0.00111211,-0.00044897,-0.00073250,-0.00033764,0.00012667,-0.
 00019459,0.00156983,0.00165756,0.00027841,0.00039730,0.00005339,-0.000
 23028,-0.00001983,0.00001300,0.00006317,-0.00009176,0.00005285,0.00059
 249,0.00008775,-0.00007394,-0.00016983,0.00006687,-0.00008867,-0.00018
 657,-0.00028993,-0.00001032,-0.13396341,0.05056252,0.08440754,0.169078
 13,-0.00477309,-0.00245868,0.00295728,0.00122321,-0.00049326,0.0004878
 0,-0.00346285,-0.00086329,0.00292151,0.02252646,-0.00571224,0.00079515
 ,0.00070095,0.00052766,-0.00003802,0.00023123,0.00042247,-0.00023181,0
 .00095955,-0.00001587,-0.00035684,-0.00005406,-0.00019860,0.00003931,0
 .00008820,0.00002371,-0.00002861,0.00002135,0.00011073,-0.00004104,-0.
 00033961,-0.00005909,0.00004616,0.00007910,-0.00003557,0.00002938,0.00
 010013,0.00014997,0.00000385,0.05426723,-0.08386129,-0.05439876,-0.071
 63359,0.09163583,-0.00106432,0.00182437,-0.00328496,-0.00050143,0.0001
 8080,0.00013818,0.00512407,0.00401359,-0.00165501,-0.01981222,0.010626
 60,0.01642882,0.00024312,0.00005214,0.00044221,0.00060419,-0.00001119,
 0.00027676,0.00057538,-0.00039235,0.00064884,-0.00021774,-0.00017865,-
 0.00012809,0.00014856,-0.00000388,0.00002547,-0.00006682,-0.00002954,0
 .00001274,-0.00021805,-0.00011302,-0.00008766,0.00009631,-0.00002593,0
 .00006801,0.00001736,0.00009760,0.00002294,0.08553138,-0.05168445,-0.1
 2627697,-0.09107953,0.05720509,0.13109510,0.00482318,-0.00290872,-0.00
 685922,-0.00068268,0.00078068,0.00038113,0.00140217,0.00116284,0.00086
 002,-0.02836052,-0.00682494,-0.02848888,-0.00202849,-0.00083551,0.0003
 3511,-0.00000660,0.00035267,0.00041431,0.00189821,0.00121305,0.0015543
 6,0.00002746,-0.00005117,-0.00009849,-0.00009520,0.00004692,0.00006049
 ,0.00001815,-0.00001465,0.00002509,0.00050458,-0.00005248,-0.00007202,
 -0.00023056,0.00005851,-0.00007878,-0.00018773,-0.00017614,0.00003409,
 -0.07565873,-0.05723980,-0.03060995,0.00881437,0.01416814,0.01149986,0
 .09429663,0.00240456,-0.00077715,-0.00100924,-0.00055208,0.00031052,-0
 .00013187,0.00032326,0.00326790,0.00106033,0.00234268,0.01935596,0.005
 03585,-0.00057346,0.00011901,0.00002413,-0.00021329,0.00012432,0.00013
 468,0.00038927,0.00097187,0.00133210,0.00011494,0.00001916,0.00002026,
 -0.00011081,0.00000729,0.00001382,0.00001867,0.00000771,-0.00000871,0.
 00044137,0.00008999,-0.00003975,-0.00013309,0.00004632,-0.00005907,-0.
 00003697,-0.00006197,0.00000439,-0.05636754,-0.15795090,-0.07544024,-0
 .00372607,-0.01045464,-0.00770215,0.06557459,0.17010118,0.00639546,-0.
 00158244,-0.00596793,-0.00086163,0.00072777,0.00009814,-0.00170135,-0.
 00110070,0.00162484,-0.03032822,-0.00268893,-0.01766822,-0.00191522,-0
 .00096464,0.00035891,-0.00019020,0.00003201,0.00039234,0.00083505,0.00
 132405,0.00168024,0.00005377,0.00013033,-0.00010042,-0.00012018,0.0000
 1693,0.00006558,0.00001770,-0.00007887,0.00006910,0.00054099,-0.000023
 78,-0.00004451,-0.00017790,0.00004921,-0.00006752,-0.00020549,-0.00020
 751,0.00001011,-0.03566490,-0.08113330,-0.10225115,-0.00378007,-0.0184
 1764,-0.01088455,0.05737351,0.08657490,0.12317396,-0.01775056,0.026129
 89,-0.02665699,-0.00093011,-0.00070592,0.00202021,-0.22349324,0.074829
 48,0.04106090,-0.00954359,0.02290369,-0.01093365,0.00304217,0.00126768
 ,0.00557526,0.00143838,0.00060166,-0.00009728,0.00056032,-0.00845182,0
 .00251130,-0.00099230,0.00021162,-0.00076016,0.00103215,-0.00015961,0.
 00025839,-0.00030436,-0.00038572,0.00025096,-0.00254247,-0.00067395,-0
 .00004298,0.00089644,-0.00021373,0.00047210,0.00031609,0.00066256,0.00
 012940,-0.08120005,-0.04150514,0.02743637,-0.00814930,-0.01525152,0.01
 073471,-0.00397176,-0.00770112,0.00769806,0.49882898,0.01714575,-0.012
 14544,0.01259899,-0.00061328,0.00034593,-0.00120357,0.06161178,-0.1038
 2461,-0.01574931,0.01096601,-0.01506043,0.02194136,-0.00081667,-0.0029
 4067,-0.00448987,-0.00196247,0.00018333,-0.00081467,-0.00177119,0.0007
 8014,-0.00020747,0.00105796,0.00086141,0.00075438,-0.00043795,0.000092
 48,-0.00019414,0.00052942,0.00027884,0.00007977,0.00039605,0.00034417,
 0.00009474,-0.00011474,-0.00004335,-0.00020856,-0.00038895,-0.00054688
 ,-0.00015767,-0.03280218,-0.12518867,0.03114009,0.01003228,0.00994539,
 -0.01556825,-0.01313244,-0.02198867,0.01522282,-0.02958015,0.51243176,
 -0.00443057,-0.00091209,0.01379854,0.00020789,-0.00017574,-0.00075110,
 0.06087042,-0.02458219,-0.10439571,-0.00396723,0.03089378,-0.03369135,
 -0.00038089,-0.00150424,-0.00416109,-0.00536483,0.00078879,-0.00012557
 ,0.00016115,0.00311071,-0.00060797,0.00084047,0.00129952,0.00052690,-0
 .00042529,-0.00025571,-0.00008501,0.00003404,-0.00012540,-0.00007424,0
 .00011079,0.00049678,0.00024630,0.00000925,-0.00010794,-0.00007776,-0.
 00011366,-0.00028229,-0.00014317,0.01555605,0.03549403,-0.09353374,0.0
 0835438,0.00968032,-0.00788482,-0.00867614,-0.01460191,0.00787929,0.05
 111196,0.01200284,0.50726814,0.00116082,0.00015635,0.00457847,-0.00000
 387,-0.00017979,-0.00028660,-0.00614004,0.03591840,0.02043009,0.001810
 47,0.00110475,0.00017699,0.00041908,-0.00081805,-0.00004071,-0.0005595
 7,-0.00044481,-0.00043677,-0.00002954,0.00188204,-0.00052391,0.0001918
 0,0.00046009,0.00004040,-0.00006117,-0.00007800,-0.00003665,0.00007469
 ,-0.00010387,0.00007175,-0.00062643,-0.00016706,0.00012090,0.00020245,
 0.00000147,0.00004492,0.00005542,0.00004125,-0.00003617,-0.00482887,-0
 .01365477,-0.00821011,0.00009648,0.00037045,-0.00025469,-0.00071247,-0
 .00277606,0.00251543,-0.05439924,-0.03805145,-0.02497297,0.06573593,-0
 .00362722,0.00067241,-0.00715275,0.00038224,0.00012047,0.00066411,0.02
 369589,-0.01747385,-0.01408032,0.00103187,0.00253986,0.00138352,-0.000
 31910,0.00173817,0.00168948,0.00154289,0.00069507,0.00067595,0.0008029
 7,-0.00202707,0.00066180,-0.00047716,-0.00085462,-0.00028310,0.0002349
 0,0.00010057,0.00009544,-0.00012418,0.00006242,-0.00009743,0.00028736,
 -0.00000760,-0.00018220,-0.00012451,0.00005467,0.00002807,0.00014827,0
 .00023351,0.00009458,-0.00895201,-0.02052207,-0.01475428,-0.00096604,0
 .00145921,0.00076464,-0.00244180,-0.00319521,0.00326723,-0.04052484,-0
 .18611052,-0.07618077,0.03100249,0.21627817,-0.00216266,0.00198360,-0.
 00446682,0.00013797,-0.00006267,0.00038716,0.01467196,-0.01620286,-0.0
 0294078,-0.00018148,-0.00187471,0.00157593,0.00024888,0.00090719,0.000
 99848,0.00101723,0.00033700,0.00028197,0.00012311,-0.00150897,0.000422
 35,-0.00032129,-0.00064301,-0.00009248,0.00015609,0.00006167,0.0000086
 3,-0.00008498,0.00011252,-0.00011631,-0.00042167,-0.00030472,0.0000574
 4,0.00012869,0.00002515,0.00005348,0.00014245,0.00025595,0.00006057,0.
 00549117,0.01619159,0.00794254,-0.00110045,-0.00048806,0.00156783,0.00
 159096,0.00388413,-0.00051474,-0.02550154,-0.08393328,-0.10171042,0.01
 619492,0.10094223,0.11117501,0.00051651,-0.00669267,0.00723494,0.00012
 098,0.00039266,-0.00052213,-0.03696467,0.02271106,-0.01858251,0.001362
 34,-0.00198015,0.00167045,-0.00124138,-0.00047419,-0.00159872,-0.00273
 610,0.00049215,-0.00014317,0.00022716,0.00195514,0.00004183,0.00067869
 ,0.00099929,0.00008703,-0.00041478,-0.00010898,0.00003609,0.00016495,-
 0.00020044,0.00008308,0.00100473,0.00022999,0.00007300,-0.00027291,0.0
 0007918,-0.00011698,-0.00012037,-0.00027945,-0.00005161,0.00881824,-0.
 00359959,0.00774514,-0.00011079,0.00116374,-0.00097093,0.00105711,0.00
 120487,0.00005978,-0.10214893,0.01653294,-0.08954694,-0.00240763,-0.00
 112873,-0.01000488,0.13252631,-0.00136652,0.00146642,-0.00179298,0.000
 31171,-0.00012343,0.00014094,0.01689567,-0.00566610,0.00997199,-0.0009
 9530,-0.00330318,0.00372811,0.00037689,0.00102748,0.00099705,0.0011547
 9,-0.00002513,0.00007778,-0.00008770,-0.00097301,-0.00037124,-0.000300
 98,-0.00046956,-0.00007380,0.00015100,0.00006748,0.00000240,-0.0000493
 9,0.00009310,-0.00005666,-0.00007742,0.00003334,0.00001577,0.00002584,
 -0.00000755,0.00002474,0.00010206,0.00010162,0.00003613,0.01458025,-0.
 00256773,0.01656318,-0.00110891,0.00001437,0.00058095,0.00033546,0.000
 22923,-0.00099572,0.01428693,-0.05566901,0.02579490,-0.01378800,0.0050
 8682,-0.02043351,-0.03056467,0.06049720,0.00351764,-0.00167311,-0.0007
 1105,-0.00064476,0.00032918,-0.00012996,0.00286432,0.00072686,0.017273
 29,0.00109435,0.00622485,-0.00230109,-0.00127175,-0.00014872,-0.000051
 47,-0.00038344,-0.00013532,0.00019814,-0.00020914,0.00080428,0.0004266
 6,0.00019989,0.00024805,-0.00004780,-0.00020132,0.00001002,0.00003350,
 0.00005372,-0.00009445,0.00006554,0.00080986,0.00020956,-0.00006927,-0
 .00022443,0.00006692,-0.00007432,-0.00011166,-0.00023156,-0.00000114,-
 0.01680568,-0.00311227,-0.01330512,0.00133794,-0.00017896,-0.00060920,
 0.00064513,0.00085810,0.00199704,-0.08630038,0.02871321,-0.18208073,-0
 .00910384,0.00209365,-0.01490374,0.10469860,-0.03434319,0.19432752,0.0
 0550973,-0.00057737,-0.00869224,-0.00125469,-0.00040532,-0.00393375,-0
 .00294722,-0.00116628,-0.00128487,-0.00176417,0.00179833,0.00031877,-0
 .00094310,-0.00008029,0.00026611,0.00058896,0.00210546,0.00203089,-0.0
 0947904,0.01343840,-0.04574008,-0.00048988,-0.00172590,0.00065317,0.00
 028549,0.00024757,0.00003118,-0.00002138,0.00041678,-0.00022015,0.0005
 6479,0.00037342,-0.00026504,-0.00003020,-0.00000474,0.00003565,-0.0000
 9222,0.00013278,0.00019553,0.00118231,0.00083375,0.00164303,-0.0001140
 4,-0.00033462,-0.00033088,-0.00075998,-0.00065132,-0.00045192,-0.00053
 533,0.00130230,0.00054528,-0.00002692,-0.00030858,-0.00006194,-0.00008
 016,0.00013535,-0.00001628,0.01021358,-0.00485876,0.00694938,-0.019557
 89,-0.00194129,0.00027550,-0.00380187,-0.00183770,-0.00030379,0.002774
 86,0.00139680,-0.00245322,-0.00043981,0.00073840,-0.00012534,0.0008342
 6,0.00055453,-0.00100162,0.00056968,0.01859163,-0.10680905,0.20265554,
 -0.00036573,-0.00044488,-0.00012230,0.00028268,0.00004297,0.00004509,-
 0.00008655,-0.00009418,0.00000958,-0.00045221,-0.00007180,-0.00004424,
 0.00020277,-0.00004533,0.00010272,0.00002802,0.00008227,0.00001553,0.0
 0010654,0.00051825,-0.00056136,-0.00003161,-0.00021043,0.00030768,-0.0
 0013082,-0.00018616,-0.00015793,0.00406084,-0.00149478,-0.00065721,-0.
 00082288,0.00098899,0.00068388,-0.00069513,0.00015304,-0.00034627,-0.0
 1421679,0.10469369,-0.00368950,0.00612545,-0.01983398,-0.00277758,-0.0
 0070738,-0.00308107,-0.00158672,0.00645199,0.00021736,0.00103501,-0.00
 140457,0.00045375,0.00022075,-0.00026595,0.00047838,0.00182578,0.00128
 485,0.00067182,-0.05138351,0.17201357,-0.45940891,0.00006607,-0.000636
 50,0.00016592,0.00028151,0.00016416,0.00004114,-0.00008831,0.00013950,
 -0.00005293,-0.00011429,0.00013769,-0.00016954,0.00013523,-0.00003088,
 0.00008066,-0.00000496,0.00002760,0.00007110,-0.00046856,-0.00031293,-
 0.00095715,0.00005508,0.00006204,0.00023025,0.00026673,0.00008873,0.00
 022956,0.00163717,-0.00027437,-0.00059871,-0.00040248,0.00058527,0.000
 32941,-0.00031138,0.00016195,-0.00005626,0.05457519,-0.18194962,0.4816
 2894,0.00537060,0.01208778,0.00322667,-0.00863843,0.00621775,-0.006686
 34,-0.00020105,-0.00090489,-0.00013041,-0.00181076,-0.00040666,-0.0009
 9771,0.00069489,0.00001336,0.00005901,-0.00107010,0.00103341,-0.000195
 44,-0.00200679,-0.00076275,0.00079471,-0.00035829,-0.00057545,-0.00022
 920,-0.00005184,-0.00004570,0.00000420,0.00001720,0.00032803,-0.000049
 08,0.00037902,0.00018059,-0.00012369,0.00008672,0.00030121,-0.00007459
 ,0.00014773,0.00014699,-0.00001657,-0.00085976,0.00024576,-0.00022139,
 -0.00000526,-0.00005040,-0.00005834,-0.00014716,0.00002759,-0.00009268
 ,-0.00015330,0.00009698,0.00007684,0.00004859,-0.00013473,-0.00006256,
 0.00002070,-0.00001708,0.00005124,0.00019346,-0.00052272,0.00072876,0.
 00834381,0.00267346,-0.02252413,-0.00826140,0.01718263,-0.42669121,-0.
 19941837,-0.00015591,0.00066827,0.00038406,0.00004874,0.00040151,0.000
 66343,-0.00075491,-0.00512155,0.00197161,0.00061641,0.00219679,0.00024
 157,-0.00258391,0.00068545,-0.00535071,-0.00056236,-0.00101071,-0.0005
 5656,0.00014317,0.00015936,0.00009730,0.00002460,0.00038654,-0.0000547
 1,0.00236243,0.00027173,-0.00019293,-0.00031537,0.00027305,-0.00014774
 ,-0.00042368,-0.00013298,0.00000603,0.00016714,0.00003004,-0.00003029,
 -0.00007562,0.00007363,0.00005596,0.00011560,-0.00003576,0.00000621,0.
 00019916,-0.00025041,-0.00017617,-0.00005254,0.00016061,0.00006687,-0.
 00003703,0.00003461,-0.00002082,-0.00131296,-0.00046350,-0.00166060,-0
 .01725906,0.45088866,-0.00262964,0.01858224,0.00737853,-0.00009412,-0.
 23070813,-0.13941250,0.00046280,-0.00154894,-0.00042960,-0.00074070,0.
 00014521,-0.00130137,0.00015899,0.00374169,0.00013103,-0.00048551,-0.0
 0139538,-0.00171436,-0.00067886,-0.00119313,-0.00250665,0.00036256,0.0
 0053043,0.00038181,-0.00023690,-0.00009628,-0.00004682,-0.00002769,-0.
 00025478,0.00002807,-0.00043797,-0.00014635,0.00026523,-0.00000471,0.0
 0006849,-0.00017141,0.00021269,0.00009869,-0.00006700,-0.00005997,0.00
 023694,0.00038845,0.00001085,-0.00004816,-0.00014589,-0.00015730,-0.00
 003848,-0.00008006,-0.00060382,0.00025296,0.00020221,0.00013104,-0.000
 21512,-0.00011549,0.00011933,-0.00002877,0.00001946,0.00070236,-0.0003
 6032,-0.00043972,0.00399656,0.21237724,0.13763606\\0.00000018,0.000014
 76,0.00001899,0.00000169,-0.00000360,-0.00000173,-0.00000792,-0.000004
 12,-0.00000092,-0.00000288,0.00000421,-0.00000236,-0.00000439,-0.00000
 641,-0.00000283,0.00000628,0.00000094,-0.00000206,-0.00000020,-0.00001
 106,-0.00000472,0.00000162,-0.00000518,-0.00000296,0.00000093,0.000000
 33,-0.00000240,-0.00000106,0.00000137,-0.00000242,0.00000480,0.0000016
 3,-0.00000249,0.00000128,-0.00000113,-0.00000353,0.00000037,-0.0000004
 0,-0.00000150,-0.00000036,-0.00000041,0.00000314,0.00000054,0.00000038
 ,0.00000256,-0.00000114,0.00000048,0.00000175,0.00000150,-0.00000213,0
 .00000170,0.00000121,0.00000122,0.00000267,-0.00000028,0.00000125,0.00
 000205,-0.00000121,0.00000425,0.00000067,-0.00000097,0.00000360,-0.000
 00362\\\@
 The archive entry for this job was punched.



 WE LOSE BECAUSE WE WIN

 GAMBLERS,

 RECOLLECTING WHICH,

 TOSS THEIR DICE AGAIN....


                          EMILY DICKINSON  BOLTS OF MELODY NO. 533
 Job cpu time:       0 days  4 hours 34 minutes 13.1 seconds.
 Elapsed time:       0 days  1 hours  8 minutes 43.8 seconds.
 File lengths (MBytes):  RWF=    424 Int=      0 D2E=      0 Chk=     20 Scr=      1
 Normal termination of Gaussian 16 at Tue Mar 26 09:28:59 2024.
