 Entering Gaussian System, Link 0=/opt/software/gaussian/g16.c01/g16
 Initial command:
 /opt/software/gaussian/g16.c01/l1.exe "/scratch/arhender/18221378/Gau-18705.inp" -scrdir="/scratch/arhender/18221378/"
 Entering Link 1 = /opt/software/gaussian/g16.c01/l1.exe PID=     18708.
  
 Copyright (c) 1988-2019, Gaussian, Inc.  All Rights Reserved.
  
 This is part of the Gaussian(R) 16 program.  It is based on
 the Gaussian(R) 09 system (copyright 2009, Gaussian, Inc.),
 the Gaussian(R) 03 system (copyright 2003, Gaussian, Inc.),
 the Gaussian(R) 98 system (copyright 1998, Gaussian, Inc.),
 the Gaussian(R) 94 system (copyright 1995, Gaussian, Inc.),
 the Gaussian 92(TM) system (copyright 1992, Gaussian, Inc.),
 the Gaussian 90(TM) system (copyright 1990, Gaussian, Inc.),
 the Gaussian 88(TM) system (copyright 1988, Gaussian, Inc.),
 the Gaussian 86(TM) system (copyright 1986, Carnegie Mellon
 University), and the Gaussian 82(TM) system (copyright 1983,
 Carnegie Mellon University). Gaussian is a federally registered
 trademark of Gaussian, Inc.
  
 This software contains proprietary and confidential information,
 including trade secrets, belonging to Gaussian, Inc.
  
 This software is provided under written license and may be
 used, copied, transmitted, or stored only in accord with that
 written license.
  
 The following legend is applicable only to US Government
 contracts under FAR:
  
                    RESTRICTED RIGHTS LEGEND
  
 Use, reproduction and disclosure by the US Government is
 subject to restrictions as set forth in subparagraphs (a)
 and (c) of the Commercial Computer Software - Restricted
 Rights clause in FAR 52.227-19.
  
 Gaussian, Inc.
 340 Quinnipiac St., Bldg. 40, Wallingford CT 06492
  
  
 ---------------------------------------------------------------
 Warning -- This program may not be used in any manner that
 competes with the business of Gaussian, Inc. or will provide
 assistance to any competitor of Gaussian, Inc.  The licensee
 of this program is prohibited from giving any competitor of
 Gaussian, Inc. access to this program.  By using this program,
 the user acknowledges that Gaussian, Inc. is engaged in the
 business of creating and licensing software in the field of
 computational chemistry and represents and warrants to the
 licensee that it is not a competitor of Gaussian, Inc. and that
 it will not use this program in any manner prohibited above.
 ---------------------------------------------------------------
  

 Cite this work as:
 Gaussian 16, Revision C.01,
 M. J. Frisch, G. W. Trucks, H. B. Schlegel, G. E. Scuseria, 
 M. A. Robb, J. R. Cheeseman, G. Scalmani, V. Barone, 
 G. A. Petersson, H. Nakatsuji, X. Li, M. Caricato, A. V. Marenich, 
 J. Bloino, B. G. Janesko, R. Gomperts, B. Mennucci, H. P. Hratchian, 
 J. V. Ortiz, A. F. Izmaylov, J. L. Sonnenberg, D. Williams-Young, 
 F. Ding, F. Lipparini, F. Egidi, J. Goings, B. Peng, A. Petrone, 
 T. Henderson, D. Ranasinghe, V. G. Zakrzewski, J. Gao, N. Rega, 
 G. Zheng, W. Liang, M. Hada, M. Ehara, K. Toyota, R. Fukuda, 
 J. Hasegawa, M. Ishida, T. Nakajima, Y. Honda, O. Kitao, H. Nakai, 
 T. Vreven, K. Throssell, J. A. Montgomery, Jr., J. E. Peralta, 
 F. Ogliaro, M. J. Bearpark, J. J. Heyd, E. N. Brothers, K. N. Kudin, 
 V. N. Staroverov, T. A. Keith, R. Kobayashi, J. Normand, 
 K. Raghavachari, A. P. Rendell, J. C. Burant, S. S. Iyengar, 
 J. Tomasi, M. Cossi, J. M. Millam, M. Klene, C. Adamo, R. Cammi, 
 J. W. Ochterski, R. L. Martin, K. Morokuma, O. Farkas, 
 J. B. Foresman, and D. J. Fox, Gaussian, Inc., Wallingford CT, 2019.
 
 ******************************************
 Gaussian 16:  ES64L-G16RevC.01  3-Jul-2019
                30-Mar-2024 
 ******************************************
 %chk=PbiLmL_ConfOpt_25.chk
 %mem=1600MB
 %nprocs=4
 Will use up to    4 processors via shared memory.
 ---------------------------------------------
 # opt freq wb97xd/Def2TZVPP geom=connectivity
 ---------------------------------------------
 1/18=20,19=15,26=3,38=1,57=2/1,3;
 2/9=110,12=2,17=6,18=5,40=1/2;
 3/5=44,7=202,11=2,25=1,30=1,71=1,74=-58/1,2,3;
 4//1;
 5/5=2,38=5/2;
 6/7=2,8=2,9=2,10=2,28=1/1;
 7//1,2,3,16;
 1/18=20,19=15,26=3/3(2);
 2/9=110/2;
 99//99;
 2/9=110/2;
 3/5=44,7=202,11=2,25=1,30=1,71=1,74=-58/1,2,3;
 4/5=5,16=3,69=1/1;
 5/5=2,38=5/2;
 7//1,2,3,16;
 1/18=20,19=15,26=3/3(-5);
 2/9=110/2;
 6/7=2,8=2,9=2,10=2,19=2,28=1/1;
 99/9=1/99;
 -------------------
 Title Card Required
 -------------------
 Symbolic Z-matrix:
 Charge = -1 Multiplicity = 1
 Si                    0.        0.        0. 
 O                     1.6565    0.        0. 
 O                    -0.6751   -1.4873    0.2482 
 H                    -0.0221   -2.0193    0.6689 
 O                    -1.0585    1.2279   -0.3351 
 O                     0.0572   -0.2912   -1.6349 
 H                    -0.7762   -0.6499   -1.8851 
 O                    -0.0328    0.3042    1.636 
 C                    -0.9966    1.2815    1.9643 
 H                    -1.5163    0.9651    2.8974 
 H                    -0.4512    2.2366    2.1516 
 C                    -1.9232    1.3796    0.7647 
 H                    -2.6995    0.5791    0.7291 
 H                    -2.4225    2.3709    0.6753 
 C                     2.3145    1.2543    0. 
 H                     2.4882    1.5512    1.061 
 H                     1.7104    2.0387   -0.5136 
 C                     3.6359    1.0543   -0.748 
 H                     4.2357    0.215    -0.3276 
 H                     4.2548    1.9804   -0.7615 
 O                     3.3485    0.7367   -2.093 
 H                     2.6688    0.0756   -2.0855 
 

 GradGradGradGradGradGradGradGradGradGradGradGradGradGradGradGradGradGrad
 Berny optimization.
 Initialization pass.
                           ----------------------------
                           !    Initial Parameters    !
                           ! (Angstroms and Degrees)  !
 --------------------------                            --------------------------
 ! Name  Definition              Value          Derivative Info.                !
 --------------------------------------------------------------------------------
 ! R1    R(1,2)                  1.6565         estimate D2E/DX2                !
 ! R2    R(1,3)                  1.6521         estimate D2E/DX2                !
 ! R3    R(1,5)                  1.6554         estimate D2E/DX2                !
 ! R4    R(1,6)                  1.6616         estimate D2E/DX2                !
 ! R5    R(1,8)                  1.6644         estimate D2E/DX2                !
 ! R6    R(2,15)                 1.4164         estimate D2E/DX2                !
 ! R7    R(3,4)                  0.9415         estimate D2E/DX2                !
 ! R8    R(5,12)                 1.4072         estimate D2E/DX2                !
 ! R9    R(6,7)                  0.9412         estimate D2E/DX2                !
 ! R10   R(8,9)                  1.4113         estimate D2E/DX2                !
 ! R11   R(9,10)                 1.1139         estimate D2E/DX2                !
 ! R12   R(9,11)                 1.1157         estimate D2E/DX2                !
 ! R13   R(9,12)                 1.519          estimate D2E/DX2                !
 ! R14   R(12,13)                1.1157         estimate D2E/DX2                !
 ! R15   R(12,14)                1.1135         estimate D2E/DX2                !
 ! R16   R(15,16)                1.1154         estimate D2E/DX2                !
 ! R17   R(15,17)                1.1153         estimate D2E/DX2                !
 ! R18   R(15,18)                1.5315         estimate D2E/DX2                !
 ! R19   R(18,19)                1.114          estimate D2E/DX2                !
 ! R20   R(18,20)                1.1139         estimate D2E/DX2                !
 ! R21   R(18,21)                1.4116         estimate D2E/DX2                !
 ! R22   R(21,22)                0.9482         estimate D2E/DX2                !
 ! A1    A(2,1,3)              114.1189         estimate D2E/DX2                !
 ! A2    A(2,1,5)              129.7479         estimate D2E/DX2                !
 ! A3    A(2,1,6)               88.0272         estimate D2E/DX2                !
 ! A4    A(2,1,8)               91.1292         estimate D2E/DX2                !
 ! A5    A(3,1,5)              115.9049         estimate D2E/DX2                !
 ! A6    A(3,1,6)               90.2358         estimate D2E/DX2                !
 ! A7    A(3,1,8)               90.5051         estimate D2E/DX2                !
 ! A8    A(5,1,6)               87.2965         estimate D2E/DX2                !
 ! A9    A(5,1,8)               92.9121         estimate D2E/DX2                !
 ! A10   A(1,2,15)             117.6813         estimate D2E/DX2                !
 ! A11   A(1,3,4)              107.002          estimate D2E/DX2                !
 ! A12   A(1,5,12)             108.3401         estimate D2E/DX2                !
 ! A13   A(1,6,7)              107.3298         estimate D2E/DX2                !
 ! A14   A(1,8,9)              111.6342         estimate D2E/DX2                !
 ! A15   A(8,9,10)             108.4678         estimate D2E/DX2                !
 ! A16   A(8,9,11)             107.3385         estimate D2E/DX2                !
 ! A17   A(8,9,12)             106.117          estimate D2E/DX2                !
 ! A18   A(10,9,11)            109.3049         estimate D2E/DX2                !
 ! A19   A(10,9,12)            113.2835         estimate D2E/DX2                !
 ! A20   A(11,9,12)            112.0553         estimate D2E/DX2                !
 ! A21   A(5,12,9)             103.6162         estimate D2E/DX2                !
 ! A22   A(5,12,13)            108.9822         estimate D2E/DX2                !
 ! A23   A(5,12,14)            107.9836         estimate D2E/DX2                !
 ! A24   A(9,12,13)            113.7862         estimate D2E/DX2                !
 ! A25   A(9,12,14)            113.2302         estimate D2E/DX2                !
 ! A26   A(13,12,14)           108.9162         estimate D2E/DX2                !
 ! A27   A(2,15,16)            107.943          estimate D2E/DX2                !
 ! A28   A(2,15,17)            111.7878         estimate D2E/DX2                !
 ! A29   A(2,15,18)            106.5691         estimate D2E/DX2                !
 ! A30   A(16,15,17)           109.5836         estimate D2E/DX2                !
 ! A31   A(16,15,18)           111.4068         estimate D2E/DX2                !
 ! A32   A(17,15,18)           109.5269         estimate D2E/DX2                !
 ! A33   A(15,18,19)           112.249          estimate D2E/DX2                !
 ! A34   A(15,18,20)           112.1302         estimate D2E/DX2                !
 ! A35   A(15,18,21)           108.6075         estimate D2E/DX2                !
 ! A36   A(19,18,20)           109.3783         estimate D2E/DX2                !
 ! A37   A(19,18,21)           107.4397         estimate D2E/DX2                !
 ! A38   A(20,18,21)           106.776          estimate D2E/DX2                !
 ! A39   A(18,21,22)           107.1746         estimate D2E/DX2                !
 ! A40   L(6,1,8,2,-1)         179.1565         estimate D2E/DX2                !
 ! A41   L(6,1,8,2,-2)         179.566          estimate D2E/DX2                !
 ! D1    D(3,1,2,15)          -170.5258         estimate D2E/DX2                !
 ! D2    D(5,1,2,15)            15.2646         estimate D2E/DX2                !
 ! D3    D(6,1,2,15)           100.0993         estimate D2E/DX2                !
 ! D4    D(8,1,2,15)           -79.4666         estimate D2E/DX2                !
 ! D5    D(2,1,3,4)             21.3232         estimate D2E/DX2                !
 ! D6    D(5,1,3,4)           -163.6239         estimate D2E/DX2                !
 ! D7    D(6,1,3,4)            109.2672         estimate D2E/DX2                !
 ! D8    D(8,1,3,4)            -70.1403         estimate D2E/DX2                !
 ! D9    D(2,1,5,12)          -124.4912         estimate D2E/DX2                !
 ! D10   D(3,1,5,12)            61.3844         estimate D2E/DX2                !
 ! D11   D(6,1,5,12)           150.3327         estimate D2E/DX2                !
 ! D12   D(8,1,5,12)           -30.5938         estimate D2E/DX2                !
 ! D13   D(2,1,6,7)            159.8657         estimate D2E/DX2                !
 ! D14   D(3,1,6,7)             45.7402         estimate D2E/DX2                !
 ! D15   D(5,1,6,7)            -70.1835         estimate D2E/DX2                !
 ! D16   D(2,1,8,9)            136.6344         estimate D2E/DX2                !
 ! D17   D(3,1,8,9)           -109.2298         estimate D2E/DX2                !
 ! D18   D(5,1,8,9)              6.7408         estimate D2E/DX2                !
 ! D19   D(1,2,15,16)           90.8582         estimate D2E/DX2                !
 ! D20   D(1,2,15,17)          -29.7297         estimate D2E/DX2                !
 ! D21   D(1,2,15,18)         -149.3657         estimate D2E/DX2                !
 ! D22   D(1,5,12,9)            43.254          estimate D2E/DX2                !
 ! D23   D(1,5,12,13)          -78.2241         estimate D2E/DX2                !
 ! D24   D(1,5,12,14)          163.6056         estimate D2E/DX2                !
 ! D25   D(1,8,9,10)           138.8471         estimate D2E/DX2                !
 ! D26   D(1,8,9,11)          -103.1573         estimate D2E/DX2                !
 ! D27   D(1,8,9,12)            16.8217         estimate D2E/DX2                !
 ! D28   D(8,9,12,5)           -37.4313         estimate D2E/DX2                !
 ! D29   D(8,9,12,13)           80.7662         estimate D2E/DX2                !
 ! D30   D(8,9,12,14)         -154.1537         estimate D2E/DX2                !
 ! D31   D(10,9,12,5)         -156.3332         estimate D2E/DX2                !
 ! D32   D(10,9,12,13)         -38.1357         estimate D2E/DX2                !
 ! D33   D(10,9,12,14)          86.9444         estimate D2E/DX2                !
 ! D34   D(11,9,12,5)           79.4262         estimate D2E/DX2                !
 ! D35   D(11,9,12,13)        -162.3763         estimate D2E/DX2                !
 ! D36   D(11,9,12,14)         -37.2962         estimate D2E/DX2                !
 ! D37   D(2,15,18,19)         -53.7113         estimate D2E/DX2                !
 ! D38   D(2,15,18,20)        -177.3099         estimate D2E/DX2                !
 ! D39   D(2,15,18,21)          64.9352         estimate D2E/DX2                !
 ! D40   D(16,15,18,19)         63.7968         estimate D2E/DX2                !
 ! D41   D(16,15,18,20)        -59.8018         estimate D2E/DX2                !
 ! D42   D(16,15,18,21)       -177.5567         estimate D2E/DX2                !
 ! D43   D(17,15,18,19)       -174.8024         estimate D2E/DX2                !
 ! D44   D(17,15,18,20)         61.5991         estimate D2E/DX2                !
 ! D45   D(17,15,18,21)        -56.1559         estimate D2E/DX2                !
 ! D46   D(15,18,21,22)        -46.3055         estimate D2E/DX2                !
 ! D47   D(19,18,21,22)         75.3312         estimate D2E/DX2                !
 ! D48   D(20,18,21,22)       -167.4138         estimate D2E/DX2                !
 --------------------------------------------------------------------------------
 Trust Radius=3.00D-01 FncErr=1.00D-07 GrdErr=1.00D-06 EigMax=2.50D+02 EigMin=1.00D-04
 Number of steps in this run=    121 maximum allowed number of steps=    132.
 GradGradGradGradGradGradGradGradGradGradGradGradGradGradGradGradGradGrad

                          Input orientation:                          
 ---------------------------------------------------------------------
 Center     Atomic      Atomic             Coordinates (Angstroms)
 Number     Number       Type             X           Y           Z
 ---------------------------------------------------------------------
      1         14           0        0.000000    0.000000    0.000000
      2          8           0        1.656500    0.000000    0.000000
      3          8           0       -0.675100   -1.487300    0.248200
      4          1           0       -0.022100   -2.019300    0.668900
      5          8           0       -1.058500    1.227900   -0.335100
      6          8           0        0.057200   -0.291200   -1.634900
      7          1           0       -0.776200   -0.649900   -1.885100
      8          8           0       -0.032800    0.304200    1.636000
      9          6           0       -0.996600    1.281500    1.964300
     10          1           0       -1.516300    0.965100    2.897400
     11          1           0       -0.451200    2.236600    2.151600
     12          6           0       -1.923200    1.379600    0.764700
     13          1           0       -2.699500    0.579100    0.729100
     14          1           0       -2.422500    2.370900    0.675300
     15          6           0        2.314500    1.254300    0.000000
     16          1           0        2.488200    1.551200    1.061000
     17          1           0        1.710400    2.038700   -0.513600
     18          6           0        3.635900    1.054300   -0.748000
     19          1           0        4.235700    0.215000   -0.327600
     20          1           0        4.254800    1.980400   -0.761500
     21          8           0        3.348500    0.736700   -2.093000
     22          1           0        2.668800    0.075600   -2.085500
 ---------------------------------------------------------------------
                    Distance matrix (angstroms):
                    1          2          3          4          5
     1  Si   0.000000
     2  O    1.656500   0.000000
     3  O    1.652097   2.776693   0.000000
     4  H    2.127319   2.709741   0.941500   0.000000
     5  O    1.655431   2.998542   2.803488   3.553371   0.000000
     6  O    1.661616   2.305527   2.347974   2.880992   2.289526
     7  H    2.139733   3.145473   2.293998   2.994468   2.451189
     8  O    1.664365   2.371238   2.355421   2.516754   2.406349
     9  C    2.548319   3.541138   3.273319   3.677362   2.300857
    10  H    3.409620   4.403749   3.706770   4.013164   3.275317
    11  H    3.136135   3.751555   4.188137   4.527164   2.751357
    12  C    2.487320   3.911817   3.169170   3.895623   1.407224
    13  H    2.855564   4.454400   2.932485   3.731458   2.060666
    14  H    3.456256   4.766072   4.256939   5.003580   2.046424
    15  C    2.632523   1.416415   4.063949   4.077203   3.389708
    16  H    3.118186   2.055156   4.460896   4.382216   3.825271
    17  H    2.710268   2.103090   4.324769   4.568066   2.890686
    18  C    3.858863   2.364123   5.102633   4.983532   4.715720
    19  H    4.253787   2.608797   5.229276   4.910598   5.390230
    20  H    4.754492   3.354554   6.111330   6.027895   5.383236
    21  O    4.016943   2.790383   5.159142   5.156023   4.770025
    22  H    3.387849   2.319435   4.366976   4.383636   4.276033
                    6          7          8          9         10
     6  O    0.000000
     7  H    0.941181   0.000000
     8  O    3.325866   3.723049   0.000000
     9  C    4.066709   4.312396   1.411314   0.000000
    10  H    4.959429   5.101792   2.056378   1.113945   0.000000
    11  H    4.581029   4.973173   2.043299   1.115687   1.818617
    12  C    3.531520   3.529294   2.342917   1.518964   2.210382
    13  H    3.734342   3.470384   2.830075   2.217871   2.500097
    14  H    4.309607   4.288494   3.302251   2.209413   2.781223
    15  C    3.186985   4.090477   3.014797   3.850013   4.811818
    16  H    4.070881   4.917383   2.870727   3.610058   4.444311
    17  H    3.069009   3.910596   3.266193   3.747157   4.816548
    18  C    3.924800   4.864558   4.439084   5.372918   6.312057
    19  H    4.407395   5.319116   4.699338   5.810954   6.636925
    20  H    4.852096   5.787220   5.190488   5.957822   6.908254
    21  O    3.478375   4.356493   5.052295   5.969789   6.972986
    22  H    2.675451   3.526264   4.604396   5.593767   6.567767
                   11         12         13         14         15
    11  H    0.000000
    12  C    2.196526   0.000000
    13  H    3.134592   1.115665   0.000000
    14  H    2.466480   1.113539   1.813883   0.000000
    15  C    3.639147   4.307966   5.111524   4.913450   0.000000
    16  H    3.209245   4.424668   5.288418   4.993561   1.115366
    17  H    3.437291   3.907878   4.808529   4.313317   1.115350
    18  C    5.148777   5.770414   6.522648   6.361087   1.531536
    19  H    5.674534   6.362504   7.024684   7.070031   2.208727
    20  H    5.540598   6.392021   7.248987   6.841288   2.207231
    21  O    5.891014   6.030803   6.675881   6.605947   2.391174
    22  H    5.688351   5.559723   6.082280   6.229908   2.421605
                   16         17         18         19         20
    16  H    0.000000
    17  H    1.822634   0.000000
    18  C    2.199228   2.175210   0.000000
    19  H    2.601422   3.120516   1.113966   0.000000
    20  H    2.574217   2.557113   1.113948   1.818040   0.000000
    21  O    3.369160   2.621656   1.411557   2.043510   2.034960
    22  H    3.480011   2.691312   1.918865   2.358987   2.810095
                   21         22
    21  O    0.000000
    22  H    0.948210   0.000000
 Stoichiometry    C4H11O6Si(1-)
 Framework group  C1[X(C4H11O6Si)]
 Deg. of freedom    60
 Full point group                 C1      NOp   1
 Largest Abelian subgroup         C1      NOp   1
 Largest concise Abelian subgroup C1      NOp   1
                         Standard orientation:                         
 ---------------------------------------------------------------------
 Center     Atomic      Atomic             Coordinates (Angstroms)
 Number     Number       Type             X           Y           Z
 ---------------------------------------------------------------------
      1         14           0       -0.512785    0.441927   -0.166000
      2          8           0        0.981061   -0.035317   -0.699528
      3          8           0       -1.282477    1.501652   -1.172967
      4          1           0       -0.894069    1.403364   -2.024965
      5          8           0       -1.278468    0.118715    1.265683
      6          8           0        0.232224    1.708879    0.609088
      7          1           0       -0.424630    2.362834    0.772513
      8          8           0       -1.235792   -0.841780   -0.940251
      9          6           0       -2.210838   -1.457813   -0.126866
     10          1           0       -3.092795   -1.706547   -0.760233
     11          1           0       -1.764964   -2.399982    0.270970
     12          6           0       -2.526336   -0.464940    0.978537
     13          1           0       -3.240146    0.336357    0.673404
     14          1           0       -2.902118   -0.948081    1.908769
     15          6           0        1.619995   -1.093081   -0.007336
     16          1           0        1.330546   -2.050732   -0.500455
     17          1           0        1.324854   -1.122111    1.067864
     18          6           0        3.126478   -0.840370   -0.118017
     19          1           0        3.455880   -0.710428   -1.174203
     20          1           0        3.724047   -1.650765    0.358482
     21          8           0        3.434932    0.352299    0.571106
     22          1           0        2.794738    1.000755    0.308889
 ---------------------------------------------------------------------
 Rotational constants (GHZ):           1.7698877           0.6743866           0.6138418
 Standard basis: def2TZVPP (5D, 7F)
 There are   573 symmetry adapted cartesian basis functions of A   symmetry.
 There are   506 symmetry adapted basis functions of A   symmetry.
   506 basis functions,   766 primitive gaussians,   573 cartesian basis functions
    49 alpha electrons       49 beta electrons
       nuclear repulsion energy       874.3798542063 Hartrees.
 NAtoms=   22 NActive=   22 NUniq=   22 SFac= 1.00D+00 NAtFMM=   60 NAOKFM=F Big=F
 Integral buffers will be    131072 words long.
 Raffenetti 2 integral format.
 Two-electron integral symmetry is turned on.
 Nuclear repulsion after empirical dispersion term =      874.3672082302 Hartrees.
 One-electron integrals computed using PRISM.
   1 Symmetry operations used in ECPInt.
 ECPInt:  NShTT=   18145 NPrTT=   50058 LenC2=   17058 LenP2D=   36386.
 LDataN:  DoStor=T MaxTD1= 6 Len=  172
 NBasis=   506 RedAO= T EigKep=  2.62D-04  NBF=   506
 NBsUse=   506 1.00D-06 EigRej= -1.00D+00 NBFU=   506
 ExpMin= 7.01D-02 ExpMax= 4.48D+04 ExpMxC= 1.53D+03 IAcc=3 IRadAn=         5 AccDes= 0.00D+00
 Harris functional with IExCor= 4639 and IRadAn=       5 diagonalized for initial guess.
 HarFok:  IExCor= 4639 AccDes= 0.00D+00 IRadAn=         5 IDoV= 1 UseB2=F ITyADJ=14
 ICtDFT=  3500011 ScaDFX=  1.000000  1.000000  1.000000  1.000000
 FoFCou: FMM=F IPFlag=           0 FMFlag=      100000 FMFlg1=           0
         NFxFlg=           0 DoJE=T BraDBF=F KetDBF=T FulRan=T
         wScrn=  0.000000 ICntrl=       500 IOpCl=  0 I1Cent=   200000004 NGrid=           0
         NMat0=    1 NMatS0=      1 NMatT0=    0 NMatD0=    1 NMtDS0=    0 NMtDT0=    0
 Petite list used in FoFCou.
 Requested convergence on RMS density matrix=1.00D-08 within 128 cycles.
 Requested convergence on MAX density matrix=1.00D-06.
 Requested convergence on             energy=1.00D-06.
 No special actions if energy rises.
 Integral accuracy reduced to 1.0D-05 until final iterations.
 Initial convergence to 1.0D-05 achieved.  Increase integral accuracy.
 SCF Done:  E(RwB97XD) =  -900.155996250     A.U. after   14 cycles
            NFock= 14  Conv=0.44D-08     -V/T= 2.0029

 **********************************************************************

            Population analysis using the SCF Density.

 **********************************************************************

 Orbital symmetries:
       Occupied  (A) (A) (A) (A) (A) (A) (A) (A) (A) (A) (A) (A)
                 (A) (A) (A) (A) (A) (A) (A) (A) (A) (A) (A) (A)
                 (A) (A) (A) (A) (A) (A) (A) (A) (A) (A) (A) (A)
                 (A) (A) (A) (A) (A) (A) (A) (A) (A) (A) (A) (A)
                 (A)
       Virtual   (A) (A) (A) (A) (A) (A) (A) (A) (A) (A) (A) (A)
                 (A) (A) (A) (A) (A) (A) (A) (A) (A) (A) (A) (A)
                 (A) (A) (A) (A) (A) (A) (A) (A) (A) (A) (A) (A)
                 (A) (A) (A) (A) (A) (A) (A) (A) (A) (A) (A) (A)
                 (A) (A) (A) (A) (A) (A) (A) (A) (A) (A) (A) (A)
                 (A) (A) (A) (A) (A) (A) (A) (A) (A) (A) (A) (A)
                 (A) (A) (A) (A) (A) (A) (A) (A) (A) (A) (A) (A)
                 (A) (A) (A) (A) (A) (A) (A) (A) (A) (A) (A) (A)
                 (A) (A) (A) (A) (A) (A) (A) (A) (A) (A) (A) (A)
                 (A) (A) (A) (A) (A) (A) (A) (A) (A) (A) (A) (A)
                 (A) (A) (A) (A) (A) (A) (A) (A) (A) (A) (A) (A)
                 (A) (A) (A) (A) (A) (A) (A) (A) (A) (A) (A) (A)
                 (A) (A) (A) (A) (A) (A) (A) (A) (A) (A) (A) (A)
                 (A) (A) (A) (A) (A) (A) (A) (A) (A) (A) (A) (A)
                 (A) (A) (A) (A) (A) (A) (A) (A) (A) (A) (A) (A)
                 (A) (A) (A) (A) (A) (A) (A) (A) (A) (A) (A) (A)
                 (A) (A) (A) (A) (A) (A) (A) (A) (A) (A) (A) (A)
                 (A) (A) (A) (A) (A) (A) (A) (A) (A) (A) (A) (A)
                 (A) (A) (A) (A) (A) (A) (A) (A) (A) (A) (A) (A)
                 (A) (A) (A) (A) (A) (A) (A) (A) (A) (A) (A) (A)
                 (A) (A) (A) (A) (A) (A) (A) (A) (A) (A) (A) (A)
                 (A) (A) (A) (A) (A) (A) (A) (A) (A) (A) (A) (A)
                 (A) (A) (A) (A) (A) (A) (A) (A) (A) (A) (A) (A)
                 (A) (A) (A) (A) (A) (A) (A) (A) (A) (A) (A) (A)
                 (A) (A) (A) (A) (A) (A) (A) (A) (A) (A) (A) (A)
                 (A) (A) (A) (A) (A) (A) (A) (A) (A) (A) (A) (A)
                 (A) (A) (A) (A) (A) (A) (A) (A) (A) (A) (A) (A)
                 (A) (A) (A) (A) (A) (A) (A) (A) (A) (A) (A) (A)
                 (A) (A) (A) (A) (A) (A) (A) (A) (A) (A) (A) (A)
                 (A) (A) (A) (A) (A) (A) (A) (A) (A) (A) (A) (A)
                 (A) (A) (A) (A) (A) (A) (A) (A) (A) (A) (A) (A)
                 (A) (A) (A) (A) (A) (A) (A) (A) (A) (A) (A) (A)
                 (A) (A) (A) (A) (A) (A) (A) (A) (A) (A) (A) (A)
                 (A) (A) (A) (A) (A) (A) (A) (A) (A) (A) (A) (A)
                 (A) (A) (A) (A) (A) (A) (A) (A) (A) (A) (A) (A)
                 (A) (A) (A) (A) (A) (A) (A) (A) (A) (A) (A) (A)
                 (A) (A) (A) (A) (A) (A) (A) (A) (A) (A) (A) (A)
                 (A) (A) (A) (A) (A) (A) (A) (A) (A) (A) (A) (A)
                 (A)
 The electronic state is 1-A.
 Alpha  occ. eigenvalues --  -66.08610 -19.09932 -19.06203 -19.05168 -19.03912
 Alpha  occ. eigenvalues --  -19.03424 -19.00319 -10.19686 -10.18742 -10.18303
 Alpha  occ. eigenvalues --  -10.18085  -5.20475  -3.55095  -3.55069  -3.54765
 Alpha  occ. eigenvalues --   -0.98915  -0.98069  -0.93362  -0.91041  -0.90574
 Alpha  occ. eigenvalues --   -0.86490  -0.68179  -0.66482  -0.56742  -0.54547
 Alpha  occ. eigenvalues --   -0.47308  -0.45285  -0.43543  -0.42164  -0.41571
 Alpha  occ. eigenvalues --   -0.40187  -0.39283  -0.37394  -0.35728  -0.34996
 Alpha  occ. eigenvalues --   -0.34441  -0.32140  -0.28732  -0.27268  -0.26225
 Alpha  occ. eigenvalues --   -0.24685  -0.24050  -0.23221  -0.22357  -0.21197
 Alpha  occ. eigenvalues --   -0.19516  -0.18791  -0.16420  -0.15131
 Alpha virt. eigenvalues --    0.24561   0.25642   0.26392   0.27669   0.28813
 Alpha virt. eigenvalues --    0.29092   0.30035   0.30638   0.32440   0.32689
 Alpha virt. eigenvalues --    0.32900   0.33595   0.35746   0.36847   0.37504
 Alpha virt. eigenvalues --    0.38813   0.39307   0.40938   0.42769   0.44056
 Alpha virt. eigenvalues --    0.44473   0.46288   0.46738   0.48919   0.50347
 Alpha virt. eigenvalues --    0.51602   0.52621   0.53796   0.54088   0.55469
 Alpha virt. eigenvalues --    0.56798   0.57145   0.58574   0.59055   0.59416
 Alpha virt. eigenvalues --    0.60846   0.61140   0.61654   0.61730   0.62318
 Alpha virt. eigenvalues --    0.63133   0.64145   0.65263   0.65687   0.66197
 Alpha virt. eigenvalues --    0.66581   0.68236   0.68897   0.69688   0.70503
 Alpha virt. eigenvalues --    0.71509   0.72123   0.74286   0.74684   0.75613
 Alpha virt. eigenvalues --    0.76813   0.77979   0.79165   0.80720   0.81357
 Alpha virt. eigenvalues --    0.81984   0.83915   0.85298   0.86394   0.88516
 Alpha virt. eigenvalues --    0.89893   0.90816   0.92675   0.93060   0.93910
 Alpha virt. eigenvalues --    0.95709   0.96017   0.96799   0.98226   0.98902
 Alpha virt. eigenvalues --    0.99937   1.01666   1.02395   1.03743   1.04198
 Alpha virt. eigenvalues --    1.05686   1.06778   1.07518   1.08408   1.09451
 Alpha virt. eigenvalues --    1.10720   1.11405   1.13572   1.14925   1.16355
 Alpha virt. eigenvalues --    1.17713   1.18766   1.19777   1.21050   1.22355
 Alpha virt. eigenvalues --    1.23573   1.24391   1.24931   1.25956   1.26952
 Alpha virt. eigenvalues --    1.29706   1.29891   1.31199   1.31594   1.32516
 Alpha virt. eigenvalues --    1.32799   1.34852   1.35629   1.37230   1.38281
 Alpha virt. eigenvalues --    1.39742   1.41110   1.42369   1.44275   1.44950
 Alpha virt. eigenvalues --    1.46204   1.48134   1.49430   1.50627   1.51649
 Alpha virt. eigenvalues --    1.53699   1.54831   1.55298   1.55449   1.56344
 Alpha virt. eigenvalues --    1.58296   1.59017   1.60096   1.60992   1.61950
 Alpha virt. eigenvalues --    1.63022   1.63750   1.64708   1.64869   1.67085
 Alpha virt. eigenvalues --    1.68700   1.70323   1.72609   1.73363   1.74379
 Alpha virt. eigenvalues --    1.77271   1.77612   1.78481   1.81025   1.83705
 Alpha virt. eigenvalues --    1.85067   1.86042   1.88828   1.90641   1.98325
 Alpha virt. eigenvalues --    2.02352   2.05009   2.05638   2.06950   2.08867
 Alpha virt. eigenvalues --    2.12023   2.12696   2.13375   2.14510   2.15317
 Alpha virt. eigenvalues --    2.17437   2.19350   2.21255   2.21826   2.22029
 Alpha virt. eigenvalues --    2.23476   2.25510   2.28568   2.29623   2.30045
 Alpha virt. eigenvalues --    2.32997   2.33737   2.35304   2.37428   2.38685
 Alpha virt. eigenvalues --    2.39338   2.40416   2.43121   2.45669   2.46471
 Alpha virt. eigenvalues --    2.47823   2.49400   2.51403   2.53228   2.54141
 Alpha virt. eigenvalues --    2.57840   2.60730   2.62502   2.64323   2.67459
 Alpha virt. eigenvalues --    2.69037   2.71018   2.72962   2.74661   2.80683
 Alpha virt. eigenvalues --    2.82187   2.82740   2.83980   2.84229   2.86799
 Alpha virt. eigenvalues --    2.88245   2.88904   2.90350   2.91928   2.93632
 Alpha virt. eigenvalues --    2.96079   2.98990   3.00284   3.01551   3.04652
 Alpha virt. eigenvalues --    3.07175   3.07592   3.08869   3.09914   3.11967
 Alpha virt. eigenvalues --    3.12204   3.14608   3.18299   3.18493   3.20318
 Alpha virt. eigenvalues --    3.20829   3.22435   3.24130   3.24628   3.25941
 Alpha virt. eigenvalues --    3.26273   3.27623   3.29841   3.31417   3.31468
 Alpha virt. eigenvalues --    3.32892   3.33314   3.36053   3.36367   3.37657
 Alpha virt. eigenvalues --    3.38873   3.40892   3.42881   3.43808   3.44658
 Alpha virt. eigenvalues --    3.45335   3.47225   3.47746   3.48833   3.51849
 Alpha virt. eigenvalues --    3.52458   3.54446   3.59165   3.59429   3.62387
 Alpha virt. eigenvalues --    3.63116   3.64468   3.64937   3.67270   3.68560
 Alpha virt. eigenvalues --    3.69576   3.70418   3.71909   3.73814   3.75215
 Alpha virt. eigenvalues --    3.76713   3.76779   3.78023   3.79714   3.82095
 Alpha virt. eigenvalues --    3.83595   3.84112   3.85923   3.86120   3.87226
 Alpha virt. eigenvalues --    3.89844   3.90109   3.91321   3.92605   3.94048
 Alpha virt. eigenvalues --    3.96045   3.96941   3.98375   3.99531   4.02589
 Alpha virt. eigenvalues --    4.02663   4.03740   4.05107   4.05860   4.06302
 Alpha virt. eigenvalues --    4.07641   4.10830   4.12667   4.14666   4.15636
 Alpha virt. eigenvalues --    4.17460   4.20590   4.21720   4.23511   4.25825
 Alpha virt. eigenvalues --    4.26993   4.27753   4.29103   4.29507   4.30012
 Alpha virt. eigenvalues --    4.32578   4.33150   4.34200   4.34608   4.36238
 Alpha virt. eigenvalues --    4.36745   4.37625   4.39905   4.41212   4.44694
 Alpha virt. eigenvalues --    4.45382   4.46342   4.48379   4.50041   4.50804
 Alpha virt. eigenvalues --    4.52795   4.55103   4.57448   4.58267   4.58967
 Alpha virt. eigenvalues --    4.61365   4.61856   4.69871   4.72428   4.73800
 Alpha virt. eigenvalues --    4.77910   4.78096   4.79043   4.80793   4.83524
 Alpha virt. eigenvalues --    4.83709   4.87482   4.88131   4.90680   4.93837
 Alpha virt. eigenvalues --    4.95670   4.95988   4.97295   4.99552   5.02123
 Alpha virt. eigenvalues --    5.05690   5.08683   5.09223   5.10421   5.13640
 Alpha virt. eigenvalues --    5.15883   5.16802   5.18944   5.20134   5.23988
 Alpha virt. eigenvalues --    5.25465   5.28193   5.29706   5.33524   5.35152
 Alpha virt. eigenvalues --    5.36517   5.40532   5.41375   5.41978   5.47060
 Alpha virt. eigenvalues --    5.47806   5.49377   5.49694   5.51812   5.54676
 Alpha virt. eigenvalues --    5.55739   5.57354   5.59363   5.60835   5.61674
 Alpha virt. eigenvalues --    5.63696   5.64575   5.65081   5.67922   5.70359
 Alpha virt. eigenvalues --    5.73422   5.75570   5.75976   5.76026   5.79319
 Alpha virt. eigenvalues --    5.80308   5.82653   5.84852   5.86828   5.87156
 Alpha virt. eigenvalues --    5.91253   5.91553   5.93039   5.96979   5.99516
 Alpha virt. eigenvalues --    6.02563   6.10496   6.15682   6.19521   6.21855
 Alpha virt. eigenvalues --    6.25219   6.31761   6.32821   6.36014   6.37149
 Alpha virt. eigenvalues --    6.42481   6.43790   6.47115   6.66895   6.77567
 Alpha virt. eigenvalues --    6.78277   6.83520   6.87222   6.90322   6.91027
 Alpha virt. eigenvalues --    6.92918   6.94155   6.95421   6.95620   6.97471
 Alpha virt. eigenvalues --    6.98740   6.99701   7.00597   7.03425   7.04577
 Alpha virt. eigenvalues --    7.06552   7.09780   7.11418   7.12808   7.16578
 Alpha virt. eigenvalues --    7.19314   7.20949   7.26239   7.30178   7.30377
 Alpha virt. eigenvalues --    7.31993   7.38009   7.44355   7.52108   7.53728
 Alpha virt. eigenvalues --    7.61081   7.63249   7.64964   7.65620   7.68031
 Alpha virt. eigenvalues --    7.72176   7.77894   7.80690   7.94121   7.96033
 Alpha virt. eigenvalues --    8.01937  13.03684  23.42989  23.44873  23.54736
 Alpha virt. eigenvalues --   23.56643  44.24349  44.25993  44.34016  44.44669
 Alpha virt. eigenvalues --   44.56450  44.65274
          Condensed to atoms (all electrons):
               1          2          3          4          5          6
     1  Si  11.485211   0.364402   0.469816  -0.042325   0.356963   0.493639
     2  O    0.364402   8.084847  -0.028601   0.000901  -0.007540  -0.071266
     3  O    0.469816  -0.028601   7.893111   0.335792  -0.023958  -0.100427
     4  H   -0.042325   0.000901   0.335792   0.560276   0.000357   0.000786
     5  O    0.356963  -0.007540  -0.023958   0.000357   8.054185  -0.098664
     6  O    0.493639  -0.071266  -0.100427   0.000786  -0.098664   7.927707
     7  H   -0.039711   0.007165   0.000831   0.000640   0.000564   0.327549
     8  O    0.393690  -0.059305  -0.089339   0.002641  -0.029951   0.000180
     9  C   -0.026998   0.007058   0.002800  -0.000354  -0.076226  -0.001543
    10  H   -0.012602  -0.000746   0.000472  -0.000153   0.005623   0.000171
    11  H    0.005918   0.001133  -0.001068   0.000159   0.009681   0.000021
    12  C   -0.056987  -0.006036  -0.010920   0.000106   0.300142  -0.001063
    13  H   -0.006897  -0.000083   0.004561   0.000238  -0.054301   0.001827
    14  H   -0.002866   0.000016  -0.000286  -0.000031  -0.041785  -0.000626
    15  C   -0.049347   0.241642  -0.003461  -0.000588  -0.010006   0.008387
    16  H   -0.002758  -0.044450   0.000229  -0.000023  -0.000644  -0.000737
    17  H   -0.016885  -0.050833  -0.000476  -0.000066   0.011321   0.001806
    18  C   -0.006779  -0.044287  -0.000245   0.000041   0.000512  -0.004169
    19  H   -0.000023   0.002085   0.000008  -0.000000  -0.000010   0.000197
    20  H    0.000088   0.006927  -0.000003  -0.000002   0.000018  -0.000053
    21  O   -0.000224  -0.009935   0.000014  -0.000003  -0.000001  -0.001315
    22  H    0.002748   0.018089  -0.000193  -0.000131   0.000284   0.011155
               7          8          9         10         11         12
     1  Si  -0.039711   0.393690  -0.026998  -0.012602   0.005918  -0.056987
     2  O    0.007165  -0.059305   0.007058  -0.000746   0.001133  -0.006036
     3  O    0.000831  -0.089339   0.002800   0.000472  -0.001068  -0.010920
     4  H    0.000640   0.002641  -0.000354  -0.000153   0.000159   0.000106
     5  O    0.000564  -0.029951  -0.076226   0.005623   0.009681   0.300142
     6  O    0.327549   0.000180  -0.001543   0.000171   0.000021  -0.001063
     7  H    0.588074   0.000050  -0.000792  -0.000017  -0.000014   0.000049
     8  O    0.000050   8.048466   0.346485  -0.038046  -0.070506  -0.071495
     9  C   -0.000792   0.346485   4.705674   0.359887   0.407394   0.300470
    10  H   -0.000017  -0.038046   0.359887   0.757550  -0.075989  -0.004286
    11  H   -0.000014  -0.070506   0.407394  -0.075989   0.774227  -0.064870
    12  C    0.000049  -0.071495   0.300470  -0.004286  -0.064870   4.774202
    13  H    0.000057   0.004111  -0.048594  -0.013099   0.014909   0.398175
    14  H   -0.000173   0.007269  -0.012352   0.008541  -0.015351   0.372287
    15  C   -0.001470   0.008389   0.002837   0.000920  -0.002381  -0.000978
    16  H    0.000099   0.011585  -0.000921   0.000102  -0.001837   0.000594
    17  H   -0.000375  -0.002999  -0.002415  -0.000019   0.001712   0.003039
    18  C    0.000250   0.002309   0.000367   0.000052  -0.000424   0.000020
    19  H   -0.000017  -0.000001  -0.000003  -0.000000  -0.000008   0.000015
    20  H    0.000001   0.000011  -0.000049   0.000001   0.000010   0.000019
    21  O    0.000026  -0.000032   0.000003  -0.000000   0.000007   0.000006
    22  H   -0.000403   0.000001  -0.000007  -0.000001   0.000001   0.000012
              13         14         15         16         17         18
     1  Si  -0.006897  -0.002866  -0.049347  -0.002758  -0.016885  -0.006779
     2  O   -0.000083   0.000016   0.241642  -0.044450  -0.050833  -0.044287
     3  O    0.004561  -0.000286  -0.003461   0.000229  -0.000476  -0.000245
     4  H    0.000238  -0.000031  -0.000588  -0.000023  -0.000066   0.000041
     5  O   -0.054301  -0.041785  -0.010006  -0.000644   0.011321   0.000512
     6  O    0.001827  -0.000626   0.008387  -0.000737   0.001806  -0.004169
     7  H    0.000057  -0.000173  -0.001470   0.000099  -0.000375   0.000250
     8  O    0.004111   0.007269   0.008389   0.011585  -0.002999   0.002309
     9  C   -0.048594  -0.012352   0.002837  -0.000921  -0.002415   0.000367
    10  H   -0.013099   0.008541   0.000920   0.000102  -0.000019   0.000052
    11  H    0.014909  -0.015351  -0.002381  -0.001837   0.001712  -0.000424
    12  C    0.398175   0.372287  -0.000978   0.000594   0.003039   0.000020
    13  H    0.737058  -0.066132  -0.000606  -0.000044   0.000286   0.000003
    14  H   -0.066132   0.725513   0.000612  -0.000041  -0.000249  -0.000005
    15  C   -0.000606   0.000612   4.835854   0.361592   0.388081   0.341201
    16  H   -0.000044  -0.000041   0.361592   0.714682  -0.053268  -0.020423
    17  H    0.000286  -0.000249   0.388081  -0.053268   0.686135  -0.035224
    18  C    0.000003  -0.000005   0.341201  -0.020423  -0.035224   4.643141
    19  H   -0.000000   0.000000  -0.053689  -0.002712   0.012216   0.416032
    20  H    0.000000  -0.000000  -0.025871   0.002209  -0.003547   0.368832
    21  O    0.000000   0.000000  -0.066493   0.006042   0.005692   0.308347
    22  H   -0.000002   0.000003  -0.012163   0.000888  -0.001478  -0.046531
              19         20         21         22
     1  Si  -0.000023   0.000088  -0.000224   0.002748
     2  O    0.002085   0.006927  -0.009935   0.018089
     3  O    0.000008  -0.000003   0.000014  -0.000193
     4  H   -0.000000  -0.000002  -0.000003  -0.000131
     5  O   -0.000010   0.000018  -0.000001   0.000284
     6  O    0.000197  -0.000053  -0.001315   0.011155
     7  H   -0.000017   0.000001   0.000026  -0.000403
     8  O   -0.000001   0.000011  -0.000032   0.000001
     9  C   -0.000003  -0.000049   0.000003  -0.000007
    10  H   -0.000000   0.000001  -0.000000  -0.000001
    11  H   -0.000008   0.000010   0.000007   0.000001
    12  C    0.000015   0.000019   0.000006   0.000012
    13  H   -0.000000   0.000000   0.000000  -0.000002
    14  H    0.000000  -0.000000   0.000000   0.000003
    15  C   -0.053689  -0.025871  -0.066493  -0.012163
    16  H   -0.002712   0.002209   0.006042   0.000888
    17  H    0.012216  -0.003547   0.005692  -0.001478
    18  C    0.416032   0.368832   0.308347  -0.046531
    19  H    0.701992  -0.052212  -0.055196  -0.006457
    20  H   -0.052212   0.705497  -0.040816   0.011261
    21  O   -0.055196  -0.040816   7.915951   0.341667
    22  H   -0.006457   0.011261   0.341667   0.470564
 Mulliken charges:
               1
     1  Si   0.691927
     2  O   -0.411185
     3  O   -0.448657
     4  H    0.141740
     5  O   -0.396566
     6  O   -0.493564
     7  H    0.117619
     8  O   -0.463513
     9  C    0.037279
    10  H    0.011639
    11  H    0.017274
    12  C    0.067500
    13  H    0.028532
    14  H    0.025655
    15  C    0.037540
    16  H    0.029836
    17  H    0.057546
    18  C    0.076982
    19  H    0.037783
    20  H    0.027678
    21  O   -0.403740
    22  H    0.210691
 Sum of Mulliken charges =  -1.00000
 Mulliken charges with hydrogens summed into heavy atoms:
               1
     1  Si   0.691927
     2  O   -0.411185
     3  O   -0.306917
     5  O   -0.396566
     6  O   -0.375945
     8  O   -0.463513
     9  C    0.066193
    12  C    0.121687
    15  C    0.124923
    18  C    0.142444
    21  O   -0.193048
 Electronic spatial extent (au):  <R**2>=           2042.0466
 Charge=             -1.0000 electrons
 Dipole moment (field-independent basis, Debye):
    X=             -1.0502    Y=             -2.7475    Z=             -0.4581  Tot=              2.9769
 Quadrupole moment (field-independent basis, Debye-Ang):
   XX=            -93.8704   YY=            -79.8956   ZZ=            -80.7424
   XY=             -2.6002   XZ=             -5.8414   YZ=             -2.6849
 Traceless Quadrupole moment (field-independent basis, Debye-Ang):
   XX=             -9.0343   YY=              4.9406   ZZ=              4.0937
   XY=             -2.6002   XZ=             -5.8414   YZ=             -2.6849
 Octapole moment (field-independent basis, Debye-Ang**2):
  XXX=            -46.9591  YYY=             11.3372  ZZZ=            -14.6471  XYY=              7.4112
  XXY=             -6.8345  XXZ=             -9.6390  XZZ=              2.9554  YZZ=              6.8523
  YYZ=              5.1196  XYZ=             -5.9765
 Hexadecapole moment (field-independent basis, Debye-Ang**3):
 XXXX=          -2031.5365 YYYY=           -567.5888 ZZZZ=           -328.7612 XXXY=            -31.6056
 XXXZ=            -50.5252 YYYX=             -3.3038 YYYZ=             13.7312 ZZZX=             11.2292
 ZZZY=            -19.0356 XXYY=           -395.2396 XXZZ=           -376.9392 YYZZ=           -149.7876
 XXYZ=             -1.6745 YYXZ=             -8.8400 ZZXY=             -2.1995
 N-N= 8.743672082302D+02 E-N=-3.894464230362D+03  KE= 8.975850781726D+02
   1 Symmetry operations used in ECPInt.
 ECPInt:  NShTT=   18145 NPrTT=   50058 LenC2=   17058 LenP2D=   36386.
 LDataN:  DoStor=T MaxTD1= 7 Len=  274
 Calling FoFJK, ICntrl=      2127 FMM=F ISym2X=0 I1Cent= 0 IOpClX= 0 NMat=1 NMatS=1 NMatT=0.
 ***** Axes restored to original set *****
 -------------------------------------------------------------------
 Center     Atomic                   Forces (Hartrees/Bohr)
 Number     Number              X              Y              Z
 -------------------------------------------------------------------
      1       14           0.010950305   -0.024806827   -0.027188753
      2        8           0.039817582    0.021628949   -0.001894937
      3        8          -0.023266656   -0.033639139   -0.000048019
      4        1           0.003821372   -0.011820676    0.011044150
      5        8          -0.032165104    0.022709820    0.013245277
      6        8           0.020590887   -0.002100852   -0.053360882
      7        1          -0.010779753   -0.003451926   -0.008827127
      8        8          -0.014356200    0.039599056    0.047762209
      9        6           0.012374805   -0.014508875    0.020004493
     10        1           0.001923961    0.007344013   -0.007645064
     11        1          -0.011738295   -0.003220391   -0.001293249
     12        6          -0.003623886    0.018330461   -0.011211570
     13        1           0.007136533    0.007762517    0.006498869
     14        1           0.001906923   -0.009829502    0.005355125
     15        6           0.003653935   -0.016298570    0.014871711
     16        1           0.000315010    0.003293347   -0.010080937
     17        1           0.007859077   -0.007010011    0.004796077
     18        6          -0.001458243    0.002152093   -0.005903265
     19        1          -0.007097088    0.011004326    0.005340998
     20        1          -0.007251491   -0.010142891    0.001846629
     21        8           0.016674477    0.011491328   -0.006664590
     22        1          -0.015288150   -0.008486251    0.003352852
 -------------------------------------------------------------------
 Cartesian Forces:  Max     0.053360882 RMS     0.016719216

 GradGradGradGradGradGradGradGradGradGradGradGradGradGradGradGradGradGrad
 Berny optimization.
 FormGI is forming the generalized inverse of G from B-inverse, IUseBI=4.
 Internal  Forces:  Max     0.062500669 RMS     0.012877932
 Search for a local minimum.
 Step number   1 out of a maximum of  121
 All quantities printed in internal units (Hartrees-Bohrs-Radians)
 Mixed Optimization -- RFO/linear search
 Second derivative matrix not updated -- first step.
 ITU=  0
     Eigenvalues ---    0.00349   0.01074   0.01475   0.01539   0.03016
     Eigenvalues ---    0.03524   0.03592   0.03650   0.04927   0.05237
     Eigenvalues ---    0.05255   0.05424   0.05509   0.05588   0.05792
     Eigenvalues ---    0.06043   0.08299   0.09043   0.10352   0.11074
     Eigenvalues ---    0.11276   0.11430   0.11591   0.11651   0.12095
     Eigenvalues ---    0.13517   0.13703   0.14519   0.16000   0.16000
     Eigenvalues ---    0.16000   0.16100   0.16499   0.19595   0.21620
     Eigenvalues ---    0.22003   0.22007   0.25000   0.28909   0.29282
     Eigenvalues ---    0.32005   0.32007   0.32038   0.32040   0.32184
     Eigenvalues ---    0.32186   0.32186   0.32228   0.38332   0.38652
     Eigenvalues ---    0.40937   0.41680   0.42333   0.42448   0.43005
     Eigenvalues ---    0.43443   0.43758   0.58089   0.59651   0.59726
 RFO step:  Lambda=-5.26385457D-02 EMin= 3.48789120D-03
 Linear search not attempted -- first point.
 Maximum step size (   0.300) exceeded in Quadratic search.
    -- Step size scaled by   0.822
 Iteration  1 RMS(Cart)=  0.06519996 RMS(Int)=  0.00138143
 Iteration  2 RMS(Cart)=  0.00184609 RMS(Int)=  0.00050520
 Iteration  3 RMS(Cart)=  0.00000243 RMS(Int)=  0.00050520
 Iteration  4 RMS(Cart)=  0.00000000 RMS(Int)=  0.00050520
 Variable       Old X    -DE/DX   Delta X   Delta X   Delta X     New X
                                 (Linear)    (Quad)   (Total)
    R1        3.13033   0.03723   0.00000   0.06522   0.06522   3.19555
    R2        3.12201   0.05052   0.00000   0.08730   0.08730   3.20931
    R3        3.12831   0.03992   0.00000   0.07661   0.07736   3.20567
    R4        3.14000   0.06250   0.00000   0.11126   0.11126   3.25125
    R5        3.14519   0.05758   0.00000   0.11227   0.11296   3.25815
    R6        2.67664  -0.01360   0.00000  -0.02318  -0.02318   2.65346
    R7        1.77918   0.01426   0.00000   0.01807   0.01807   1.79724
    R8        2.65927   0.00471   0.00000   0.00506   0.00456   2.66383
    R9        1.77857   0.01321   0.00000   0.01671   0.01671   1.79529
   R10        2.66700  -0.00626   0.00000  -0.01354  -0.01390   2.65310
   R11        2.10505  -0.00939   0.00000  -0.02061  -0.02061   2.08444
   R12        2.10834  -0.00871   0.00000  -0.01923  -0.01923   2.08912
   R13        2.87043   0.00449   0.00000  -0.00467  -0.00550   2.86493
   R14        2.10830  -0.01074   0.00000  -0.02371  -0.02371   2.08460
   R15        2.10428  -0.01004   0.00000  -0.02201  -0.02201   2.08227
   R16        2.10774  -0.00866   0.00000  -0.01910  -0.01910   2.08864
   R17        2.10771  -0.01140   0.00000  -0.02512  -0.02512   2.08258
   R18        2.89418  -0.01224   0.00000  -0.02913  -0.02913   2.86505
   R19        2.10509  -0.01010   0.00000  -0.02217  -0.02217   2.08292
   R20        2.10506  -0.01248   0.00000  -0.02742  -0.02742   2.07764
   R21        2.66746   0.00220   0.00000   0.00369   0.00369   2.67115
   R22        1.79186   0.01690   0.00000   0.02194   0.02194   1.81380
    A1        1.99175   0.00310   0.00000   0.01390   0.01352   2.00528
    A2        2.26453  -0.00035   0.00000  -0.00229  -0.00402   2.26051
    A3        1.53637  -0.00698   0.00000  -0.01780  -0.01782   1.51855
    A4        1.59050   0.00530   0.00000  -0.01515  -0.01584   1.57467
    A5        2.02292  -0.00152   0.00000  -0.00546  -0.00574   2.01718
    A6        1.57491   0.00684   0.00000   0.04789   0.04800   1.62291
    A7        1.57961   0.00893   0.00000   0.04165   0.04126   1.62088
    A8        1.52361   0.01308   0.00000   0.03700   0.03654   1.56015
    A9        1.62162  -0.02467   0.00000  -0.07976  -0.07896   1.54267
   A10        2.05393   0.01140   0.00000   0.03098   0.03098   2.08491
   A11        1.86754   0.01222   0.00000   0.04727   0.04727   1.91481
   A12        1.89089   0.00837   0.00000   0.04157   0.04252   1.93341
   A13        1.87326   0.00929   0.00000   0.03593   0.03593   1.90919
   A14        1.94838   0.01107   0.00000   0.05170   0.05217   2.00055
   A15        1.89312   0.00283   0.00000   0.02839   0.02894   1.92206
   A16        1.87341   0.00449   0.00000   0.02967   0.02974   1.90315
   A17        1.85209   0.00114   0.00000  -0.01103  -0.01234   1.83975
   A18        1.90773  -0.00010   0.00000  -0.00886  -0.00972   1.89801
   A19        1.97717  -0.00045   0.00000  -0.00275  -0.00301   1.97416
   A20        1.95573  -0.00720   0.00000  -0.03102  -0.03038   1.92536
   A21        1.80844   0.00557   0.00000   0.00811   0.00724   1.81569
   A22        1.90210   0.00054   0.00000   0.01127   0.01150   1.91359
   A23        1.88467   0.00237   0.00000   0.02750   0.02794   1.91261
   A24        1.98594  -0.00458   0.00000  -0.02852  -0.02870   1.95725
   A25        1.97624  -0.00466   0.00000  -0.01160  -0.01159   1.96465
   A26        1.90095   0.00147   0.00000  -0.00191  -0.00264   1.89830
   A27        1.88396   0.00576   0.00000   0.03500   0.03495   1.91891
   A28        1.95107   0.00113   0.00000  -0.00126  -0.00154   1.94953
   A29        1.85998  -0.00377   0.00000  -0.00968  -0.00981   1.85017
   A30        1.91259  -0.00101   0.00000  -0.00721  -0.00732   1.90528
   A31        1.94442   0.00066   0.00000   0.00428   0.00422   1.94864
   A32        1.91161  -0.00267   0.00000  -0.02028  -0.02041   1.89119
   A33        1.95911  -0.00974   0.00000  -0.04457  -0.04481   1.91430
   A34        1.95704   0.00071   0.00000  -0.00028  -0.00057   1.95647
   A35        1.89556   0.00301   0.00000   0.01268   0.01280   1.90836
   A36        1.90901   0.00123   0.00000  -0.00271  -0.00334   1.90567
   A37        1.87518   0.00649   0.00000   0.03651   0.03677   1.91195
   A38        1.86359  -0.00096   0.00000   0.00271   0.00267   1.86626
   A39        1.87055  -0.00593   0.00000  -0.02294  -0.02294   1.84761
   A40        3.12687  -0.00168   0.00000  -0.03295  -0.03365   3.09322
   A41        3.13402  -0.01650   0.00000  -0.08323  -0.08268   3.05134
    D1       -2.97624   0.00353   0.00000   0.03587   0.03602  -2.94022
    D2        0.26642  -0.01199   0.00000  -0.04173  -0.04130   0.22512
    D3        1.74706  -0.00073   0.00000  -0.00811  -0.00813   1.73893
    D4       -1.38695   0.01577   0.00000   0.07512   0.07455  -1.31241
    D5        0.37216   0.00245   0.00000   0.00343   0.00324   0.37540
    D6       -2.85578   0.01574   0.00000   0.06973   0.06928  -2.78649
    D7        1.90707  -0.00216   0.00000   0.00520   0.00567   1.91275
    D8       -1.22418  -0.00742   0.00000   0.00108   0.00125  -1.22293
    D9       -2.17278   0.01560   0.00000   0.09089   0.09037  -2.08241
   D10        1.07136  -0.00037   0.00000   0.01123   0.01170   1.08306
   D11        2.62380   0.01370   0.00000   0.08285   0.08274   2.70654
   D12       -0.53396   0.00182   0.00000   0.00412   0.00416  -0.52980
   D13        2.79018   0.00243   0.00000   0.01645   0.01682   2.80701
   D14        0.79832  -0.00050   0.00000   0.00406   0.00515   0.80347
   D15       -1.22493   0.00161   0.00000   0.01263   0.01116  -1.21377
   D16        2.38472  -0.00105   0.00000  -0.00414  -0.00231   2.38241
   D17       -1.90642   0.00237   0.00000   0.01055   0.01172  -1.89469
   D18        0.11765   0.00055   0.00000   0.00485   0.00407   0.12171
   D19        1.58577   0.00237   0.00000   0.02140   0.02141   1.60719
   D20       -0.51888  -0.00084   0.00000   0.00815   0.00810  -0.51078
   D21       -2.60692   0.00414   0.00000   0.03966   0.03969  -2.56724
   D22        0.75492   0.00322   0.00000   0.00691   0.00645   0.76137
   D23       -1.36527   0.00524   0.00000   0.03015   0.03030  -1.33496
   D24        2.85546   0.00185   0.00000   0.01069   0.01045   2.86590
   D25        2.42334  -0.00216   0.00000  -0.01239  -0.01235   2.41099
   D26       -1.80043   0.00167   0.00000   0.00838   0.00952  -1.79091
   D27        0.29359  -0.00383   0.00000  -0.01839  -0.01748   0.27611
   D28       -0.65330   0.00191   0.00000   0.02403   0.02418  -0.62912
   D29        1.40964   0.00373   0.00000   0.02816   0.02784   1.43748
   D30       -2.69049  -0.00199   0.00000  -0.00799  -0.00781  -2.69830
   D31       -2.72853  -0.00204   0.00000  -0.00208  -0.00156  -2.73009
   D32       -0.66559  -0.00023   0.00000   0.00205   0.00210  -0.66350
   D33        1.51747  -0.00595   0.00000  -0.03410  -0.03355   1.48391
   D34        1.38625   0.00418   0.00000   0.03665   0.03672   1.42297
   D35       -2.83400   0.00600   0.00000   0.04079   0.04038  -2.79362
   D36       -0.65094   0.00028   0.00000   0.00464   0.00473  -0.64621
   D37       -0.93744  -0.00581   0.00000  -0.04391  -0.04359  -0.98103
   D38       -3.09464  -0.00058   0.00000  -0.00623  -0.00630  -3.10094
   D39        1.13333  -0.00173   0.00000  -0.01748  -0.01751   1.11583
   D40        1.11346  -0.00078   0.00000  -0.00531  -0.00508   1.10838
   D41       -1.04374   0.00445   0.00000   0.03237   0.03221  -1.01153
   D42       -3.09895   0.00330   0.00000   0.02112   0.02101  -3.07794
   D43       -3.05088  -0.00343   0.00000  -0.02528  -0.02509  -3.07597
   D44        1.07511   0.00180   0.00000   0.01240   0.01219   1.08730
   D45       -0.98011   0.00065   0.00000   0.00115   0.00099  -0.97911
   D46       -0.80818   0.00528   0.00000   0.04214   0.04205  -0.76613
   D47        1.31478  -0.00088   0.00000   0.01736   0.01739   1.33217
   D48       -2.92192   0.00332   0.00000   0.03388   0.03394  -2.88798
         Item               Value     Threshold  Converged?
 Maximum Force            0.062501     0.000450     NO 
 RMS     Force            0.012878     0.000300     NO 
 Maximum Displacement     0.317646     0.001800     NO 
 RMS     Displacement     0.065313     0.001200     NO 
 Predicted change in Energy=-2.900013D-02
 GradGradGradGradGradGradGradGradGradGradGradGradGradGradGradGradGradGrad

                          Input orientation:                          
 ---------------------------------------------------------------------
 Center     Atomic      Atomic             Coordinates (Angstroms)
 Number     Number       Type             X           Y           Z
 ---------------------------------------------------------------------
      1         14           0       -0.000564   -0.045992   -0.033134
      2          8           0        1.689634    0.000272   -0.008512
      3          8           0       -0.677761   -1.579582    0.238351
      4          1           0       -0.048279   -2.133249    0.687485
      5          8           0       -1.110579    1.204582   -0.318784
      6          8           0        0.121031   -0.300880   -1.730288
      7          1           0       -0.693439   -0.668195   -2.053191
      8          8           0       -0.042867    0.364605    1.640866
      9          6           0       -1.002809    1.330595    1.982146
     10          1           0       -1.505286    1.050383    2.923256
     11          1           0       -0.499616    2.304621    2.124371
     12          6           0       -1.948393    1.394486    0.798841
     13          1           0       -2.709631    0.596782    0.831395
     14          1           0       -2.458265    2.367886    0.717083
     15          6           0        2.346054    1.241150    0.022729
     16          1           0        2.541104    1.538261    1.069284
     17          1           0        1.754042    2.027875   -0.472357
     18          6           0        3.634079    1.052443   -0.754445
     19          1           0        4.213406    0.222971   -0.317096
     20          1           0        4.251791    1.961940   -0.758380
     21          8           0        3.328425    0.756654   -2.102441
     22          1           0        2.614426    0.115790   -2.074981
 ---------------------------------------------------------------------
                    Distance matrix (angstroms):
                    1          2          3          4          5
     1  Si   0.000000
     2  O    1.691011   0.000000
     3  O    1.698292   2.856824   0.000000
     4  H    2.208667   2.838427   0.951061   0.000000
     5  O    1.696368   3.063955   2.872159   3.644472   0.000000
     6  O    1.720490   2.348556   2.479655   3.038399   2.403253
     7  H    2.224375   3.210388   2.466179   3.173944   2.586401
     8  O    1.724139   2.419658   2.479920   2.673619   2.384491
     9  C    2.638340   3.603017   3.408168   3.819095   2.306896
    10  H    3.493776   4.461560   3.848407   4.154162   3.269617
    11  H    3.229437   3.827797   4.321556   4.686474   2.748157
    12  C    2.561484   3.978806   3.282337   4.008460   1.409639
    13  H    2.915409   4.518274   3.035911   3.815308   2.061383
    14  H    3.525611   4.830854   4.356821   5.105794   2.059746
    15  C    2.677027   1.404151   4.140831   4.190620   3.473655
    16  H    3.191436   2.062052   4.557685   4.508953   3.920824
    17  H    2.751816   2.080979   4.408234   4.680657   2.984536
    18  C    3.864904   2.333312   5.148317   5.078145   4.767046
    19  H    4.232082   2.552302   5.242255   4.972214   5.413721
    20  H    4.758182   3.312867   6.151125   6.111604   5.433401
    21  O    4.001055   2.764468   5.194885   5.247604   4.804876
    22  H    3.321670   2.266910   4.366267   4.447403   4.259737
                    6          7          8          9         10
     6  O    0.000000
     7  H    0.950025   0.000000
     8  O    3.440118   3.890498   0.000000
     9  C    4.207956   4.513847   1.403958   0.000000
    10  H    5.111389   5.327067   2.062399   1.103037   0.000000
    11  H    4.693851   5.131006   2.050868   1.105513   1.795189
    12  C    3.681478   3.736797   2.323939   1.516055   2.197246
    13  H    3.921819   3.739791   2.796566   2.185394   2.456030
    14  H    4.445752   4.472899   3.271186   2.189683   2.740654
    15  C    3.225159   4.146512   3.015566   3.881005   4.825171
    16  H    4.132408   5.008050   2.895009   3.665483   4.477556
    17  H    3.110019   3.969634   3.234356   3.756463   4.807172
    18  C    3.889120   4.834743   4.441910   5.391385   6.319697
    19  H    4.361085   5.280655   4.687167   5.807086   6.624797
    20  H    4.809172   5.748864   5.172228   5.959858   6.894151
    21  O    3.397683   4.267084   5.052886   5.981041   6.979160
    22  H    2.551361   3.399570   4.575001   5.569598   6.544301
                   11         12         13         14         15
    11  H    0.000000
    12  C    2.164331   0.000000
    13  H    3.077770   1.103120   0.000000
    14  H    2.412627   1.101890   1.792502   0.000000
    15  C    3.694010   4.366708   5.160339   4.983287   0.000000
    16  H    3.308549   4.499933   5.339775   5.079962   1.105259
    17  H    3.449429   3.965496   4.865406   4.390206   1.102055
    18  C    5.190662   5.804626   6.554783   6.404096   1.516120
    19  H    5.701457   6.370678   7.027603   7.083882   2.153874
    20  H    5.568083   6.417883   7.269968   6.882343   2.182087
    21  O    5.908980   6.055500   6.714989   6.635629   2.390845
    22  H    5.667698   5.541953   6.084732   6.212871   2.395590
                   16         17         18         19         20
    16  H    0.000000
    17  H    1.798845   0.000000
    18  C    2.180964   2.136722   0.000000
    19  H    2.539416   3.054546   1.102233   0.000000
    20  H    2.538959   2.514936   1.099440   1.794497   0.000000
    21  O    3.360153   2.598434   1.413509   2.062877   2.027762
    22  H    3.451841   2.639079   1.913329   2.378736   2.796904
                   21         22
    21  O    0.000000
    22  H    0.959820   0.000000
 Stoichiometry    C4H11O6Si(1-)
 Framework group  C1[X(C4H11O6Si)]
 Deg. of freedom    60
 Full point group                 C1      NOp   1
 Largest Abelian subgroup         C1      NOp   1
 Largest concise Abelian subgroup C1      NOp   1
                         Standard orientation:                         
 ---------------------------------------------------------------------
 Center     Atomic      Atomic             Coordinates (Angstroms)
 Number     Number       Type             X           Y           Z
 ---------------------------------------------------------------------
      1         14           0       -0.500470    0.493600   -0.168725
      2          8           0        1.010010   -0.044309   -0.705959
      3          8           0       -1.274666    1.597855   -1.200926
      4          1           0       -0.921564    1.516759   -2.080278
      5          8           0       -1.335771    0.115859    1.258597
      6          8           0        0.341881    1.734443    0.674389
      7          1           0       -0.260744    2.438273    0.884187
      8          8           0       -1.256665   -0.865258   -0.913256
      9          6           0       -2.239346   -1.490229   -0.129135
     10          1           0       -3.110498   -1.754518   -0.751982
     11          1           0       -1.819255   -2.415923    0.305346
     12          6           0       -2.571165   -0.497482    0.967574
     13          1           0       -3.294200    0.265476    0.632924
     14          1           0       -2.964269   -0.984804    1.874297
     15          6           0        1.624462   -1.131231   -0.063548
     16          1           0        1.352103   -2.073443   -0.573111
     17          1           0        1.332218   -1.195971    0.997077
     18          6           0        3.116118   -0.868925   -0.132667
     19          1           0        3.420854   -0.733026   -1.183183
     20          1           0        3.701013   -1.687796    0.310183
     21          8           0        3.420638    0.299033    0.602962
     22          1           0        2.747086    0.940793    0.366897
 ---------------------------------------------------------------------
 Rotational constants (GHZ):           1.6863933           0.6663117           0.6000316
 Standard basis: def2TZVPP (5D, 7F)
 There are   573 symmetry adapted cartesian basis functions of A   symmetry.
 There are   506 symmetry adapted basis functions of A   symmetry.
   506 basis functions,   766 primitive gaussians,   573 cartesian basis functions
    49 alpha electrons       49 beta electrons
       nuclear repulsion energy       861.7007323087 Hartrees.
 NAtoms=   22 NActive=   22 NUniq=   22 SFac= 1.00D+00 NAtFMM=   60 NAOKFM=F Big=F
 Integral buffers will be    131072 words long.
 Raffenetti 2 integral format.
 Two-electron integral symmetry is turned on.
 Nuclear repulsion after empirical dispersion term =      861.6882429736 Hartrees.
 One-electron integrals computed using PRISM.
   1 Symmetry operations used in ECPInt.
 ECPInt:  NShTT=   18145 NPrTT=   50058 LenC2=   17012 LenP2D=   36194.
 LDataN:  DoStor=T MaxTD1= 6 Len=  172
 NBasis=   506 RedAO= T EigKep=  2.71D-04  NBF=   506
 NBsUse=   506 1.00D-06 EigRej= -1.00D+00 NBFU=   506
 Initial guess from the checkpoint file:  "PbiLmL_ConfOpt_25.chk"
 B after Tr=    -0.000000    0.000000   -0.000000
         Rot=    0.999947   -0.008530    0.000901    0.005720 Ang=  -1.18 deg.
 ExpMin= 7.01D-02 ExpMax= 4.48D+04 ExpMxC= 1.53D+03 IAcc=3 IRadAn=         5 AccDes= 0.00D+00
 Harris functional with IExCor= 4639 and IRadAn=       5 diagonalized for initial guess.
 HarFok:  IExCor= 4639 AccDes= 0.00D+00 IRadAn=         5 IDoV= 1 UseB2=F ITyADJ=14
 ICtDFT=  3500011 ScaDFX=  1.000000  1.000000  1.000000  1.000000
 FoFCou: FMM=F IPFlag=           0 FMFlag=      100000 FMFlg1=           0
         NFxFlg=           0 DoJE=T BraDBF=F KetDBF=T FulRan=T
         wScrn=  0.000000 ICntrl=       500 IOpCl=  0 I1Cent=   200000004 NGrid=           0
         NMat0=    1 NMatS0=      1 NMatT0=    0 NMatD0=    1 NMtDS0=    0 NMtDT0=    0
 Petite list used in FoFCou.
 Requested convergence on RMS density matrix=1.00D-08 within 128 cycles.
 Requested convergence on MAX density matrix=1.00D-06.
 Requested convergence on             energy=1.00D-06.
 No special actions if energy rises.
 Integral accuracy reduced to 1.0D-05 until final iterations.
 Initial convergence to 1.0D-05 achieved.  Increase integral accuracy.
 SCF Done:  E(RwB97XD) =  -900.183832020     A.U. after   12 cycles
            NFock= 12  Conv=0.58D-08     -V/T= 2.0034
   1 Symmetry operations used in ECPInt.
 ECPInt:  NShTT=   18145 NPrTT=   50058 LenC2=   17012 LenP2D=   36194.
 LDataN:  DoStor=T MaxTD1= 7 Len=  274
 Calling FoFJK, ICntrl=      2127 FMM=F ISym2X=0 I1Cent= 0 IOpClX= 0 NMat=1 NMatS=1 NMatT=0.
 ***** Axes restored to original set *****
 -------------------------------------------------------------------
 Center     Atomic                   Forces (Hartrees/Bohr)
 Number     Number              X              Y              Z
 -------------------------------------------------------------------
      1       14           0.003340662   -0.014501837   -0.016602911
      2        8           0.010849260    0.009238570    0.001505989
      3        8          -0.001607379   -0.004602842   -0.003099698
      4        1          -0.000976221   -0.001945196    0.005009879
      5        8          -0.019867473    0.003157803    0.003578599
      6        8           0.005471363   -0.000114440   -0.012666522
      7        1          -0.003762782    0.000553545   -0.003293129
      8        8          -0.007120084    0.017835784    0.024605987
      9        6           0.012505381   -0.013079551    0.005104127
     10        1          -0.000017102    0.002825874   -0.002717722
     11        1          -0.004335865   -0.000160944    0.000834333
     12        6           0.003436523    0.008800750   -0.009808854
     13        1           0.001881248    0.002574063    0.002965473
     14        1           0.000826471   -0.003637877    0.000862010
     15        6           0.000578578   -0.010966914    0.007771253
     16        1           0.000378922    0.001925603   -0.004017986
     17        1           0.001651251   -0.000969883    0.002565340
     18        6          -0.000705765    0.001614744   -0.006203229
     19        1          -0.001166172    0.003846754    0.002347483
     20        1          -0.002324816   -0.002875770    0.001291642
     21        8           0.008245698    0.001758827   -0.001105535
     22        1          -0.007281701   -0.001277063    0.001073470
 -------------------------------------------------------------------
 Cartesian Forces:  Max     0.024605987 RMS     0.007175900

 GradGradGradGradGradGradGradGradGradGradGradGradGradGradGradGradGradGrad
 Berny optimization.
 Using GEDIIS/GDIIS optimizer.
 FormGI is forming the generalized inverse of G from B-inverse, IUseBI=4.
 Internal  Forces:  Max     0.024213135 RMS     0.004178096
 Search for a local minimum.
 Step number   2 out of a maximum of  121
 All quantities printed in internal units (Hartrees-Bohrs-Radians)
 Mixed Optimization -- RFO/linear search
 Update second derivatives using D2CorX and points    1    2
 DE= -2.78D-02 DEPred=-2.90D-02 R= 9.60D-01
 TightC=F SS=  1.41D+00  RLast= 3.69D-01 DXNew= 5.0454D-01 1.1069D+00
 Trust test= 9.60D-01 RLast= 3.69D-01 DXMaxT set to 5.05D-01
 ITU=  1  0
 Use linear search instead of GDIIS.
     Eigenvalues ---    0.00349   0.01080   0.01471   0.01537   0.02973
     Eigenvalues ---    0.03518   0.03581   0.03644   0.04925   0.05196
     Eigenvalues ---    0.05228   0.05551   0.05668   0.05821   0.05930
     Eigenvalues ---    0.06225   0.08451   0.09120   0.10341   0.10928
     Eigenvalues ---    0.11138   0.11248   0.11495   0.11704   0.12164
     Eigenvalues ---    0.13471   0.13735   0.14275   0.16000   0.16000
     Eigenvalues ---    0.16035   0.16309   0.16643   0.20564   0.21832
     Eigenvalues ---    0.22012   0.22024   0.24831   0.29041   0.29414
     Eigenvalues ---    0.31623   0.32009   0.32020   0.32065   0.32105
     Eigenvalues ---    0.32185   0.32191   0.32226   0.34224   0.38508
     Eigenvalues ---    0.41013   0.41592   0.42426   0.42784   0.43035
     Eigenvalues ---    0.43754   0.46422   0.57935   0.59674   0.59712
 RFO step:  Lambda=-6.77963446D-03 EMin= 3.48852136D-03
 Quartic linear search produced a step of  0.51687.
 Iteration  1 RMS(Cart)=  0.10509098 RMS(Int)=  0.00391518
 Iteration  2 RMS(Cart)=  0.00762841 RMS(Int)=  0.00048930
 Iteration  3 RMS(Cart)=  0.00003039 RMS(Int)=  0.00048890
 Iteration  4 RMS(Cart)=  0.00000001 RMS(Int)=  0.00048890
 Variable       Old X    -DE/DX   Delta X   Delta X   Delta X     New X
                                 (Linear)    (Quad)   (Total)
    R1        3.19555   0.01036   0.03371  -0.00137   0.03234   3.22789
    R2        3.20931   0.00725   0.04512  -0.02570   0.01942   3.22873
    R3        3.20567   0.01239   0.03999   0.00578   0.04600   3.25167
    R4        3.25125   0.01580   0.05751  -0.00804   0.04946   3.30072
    R5        3.25815   0.02421   0.05838   0.02842   0.08720   3.34535
    R6        2.65346  -0.00634  -0.01198  -0.00829  -0.02027   2.63319
    R7        1.79724   0.00285   0.00934  -0.00330   0.00604   1.80328
    R8        2.66383  -0.00460   0.00236  -0.01917  -0.01724   2.64659
    R9        1.79529   0.00413   0.00864   0.00066   0.00930   1.80459
   R10        2.65310  -0.00938  -0.00719  -0.02780  -0.03501   2.61809
   R11        2.08444  -0.00303  -0.01065  -0.00162  -0.01227   2.07216
   R12        2.08912  -0.00201  -0.00994   0.00217  -0.00776   2.08135
   R13        2.86493   0.00584  -0.00284   0.01888   0.01572   2.88065
   R14        2.08460  -0.00307  -0.01225  -0.00005  -0.01231   2.07229
   R15        2.08227  -0.00366  -0.01138  -0.00367  -0.01504   2.06723
   R16        2.08864  -0.00322  -0.00987  -0.00346  -0.01333   2.07531
   R17        2.08258  -0.00273  -0.01299   0.00236  -0.01062   2.07196
   R18        2.86505  -0.00180  -0.01506   0.00838  -0.00668   2.85837
   R19        2.08292  -0.00258  -0.01146   0.00137  -0.01009   2.07283
   R20        2.07764  -0.00369  -0.01417  -0.00060  -0.01478   2.06287
   R21        2.67115  -0.00028   0.00191  -0.00310  -0.00120   2.66995
   R22        1.81380   0.00630   0.01134   0.00347   0.01481   1.82861
    A1        2.00528   0.00035   0.00699  -0.00400   0.00259   2.00786
    A2        2.26051   0.00193  -0.00208   0.02177   0.01796   2.27847
    A3        1.51855   0.00037  -0.00921   0.01779   0.00838   1.52693
    A4        1.57467  -0.00061  -0.00819  -0.02741  -0.03533   1.53934
    A5        2.01718  -0.00219  -0.00297  -0.01763  -0.02055   1.99664
    A6        1.62291   0.00268   0.02481   0.01337   0.03830   1.66121
    A7        1.62088   0.00231   0.02133   0.00472   0.02578   1.64665
    A8        1.56015   0.00126   0.01889  -0.02212  -0.00304   1.55711
    A9        1.54267  -0.00508  -0.04081   0.01839  -0.02180   1.52087
   A10        2.08491   0.00566   0.01601   0.01441   0.03042   2.11533
   A11        1.91481   0.00379   0.02443   0.00432   0.02875   1.94356
   A12        1.93341   0.00095   0.02198   0.00151   0.02305   1.95646
   A13        1.90919   0.00291   0.01857   0.00358   0.02215   1.93133
   A14        2.00055   0.00017   0.02696  -0.01281   0.01361   2.01416
   A15        1.92206   0.00057   0.01496   0.00963   0.02508   1.94714
   A16        1.90315   0.00178   0.01537   0.01476   0.03042   1.93357
   A17        1.83975   0.00188  -0.00638   0.01497   0.00742   1.84717
   A18        1.89801  -0.00032  -0.00503  -0.01553  -0.02199   1.87602
   A19        1.97416  -0.00118  -0.00156  -0.01584  -0.01794   1.95622
   A20        1.92536  -0.00257  -0.01570  -0.00578  -0.02118   1.90418
   A21        1.81569   0.00373   0.00374   0.02423   0.02686   1.84255
   A22        1.91359   0.00069   0.00594   0.00447   0.01114   1.92473
   A23        1.91261  -0.00085   0.01444  -0.00210   0.01234   1.92495
   A24        1.95725  -0.00378  -0.01483  -0.02911  -0.04429   1.91296
   A25        1.96465  -0.00012  -0.00599   0.01233   0.00618   1.97083
   A26        1.89830   0.00048  -0.00137  -0.00822  -0.01042   1.88788
   A27        1.91891   0.00231   0.01806   0.01943   0.03732   1.95623
   A28        1.94953   0.00002  -0.00080  -0.00403  -0.00499   1.94453
   A29        1.85017  -0.00071  -0.00507   0.00647   0.00115   1.85132
   A30        1.90528  -0.00108  -0.00378  -0.01837  -0.02228   1.88300
   A31        1.94864   0.00010   0.00218   0.00163   0.00346   1.95210
   A32        1.89119  -0.00065  -0.01055  -0.00467  -0.01539   1.87580
   A33        1.91430  -0.00375  -0.02316  -0.01533  -0.03884   1.87546
   A34        1.95647   0.00019  -0.00029  -0.00060  -0.00139   1.95509
   A35        1.90836   0.00135   0.00662   0.00714   0.01386   1.92222
   A36        1.90567   0.00007  -0.00173  -0.01189  -0.01458   1.89109
   A37        1.91195   0.00236   0.01901   0.01069   0.03003   1.94198
   A38        1.86626  -0.00003   0.00138   0.01106   0.01232   1.87858
   A39        1.84761  -0.00170  -0.01186  -0.00088  -0.01273   1.83488
   A40        3.09322  -0.00024  -0.01740  -0.00962  -0.02695   3.06627
   A41        3.05134  -0.00539  -0.04274  -0.01546  -0.05812   2.99322
    D1       -2.94022   0.00313   0.01862   0.05641   0.07526  -2.86495
    D2        0.22512  -0.00174  -0.02135   0.04946   0.02780   0.25292
    D3        1.73893   0.00002  -0.00420   0.03329   0.02917   1.76810
    D4       -1.31241   0.00540   0.03853   0.04875   0.08729  -1.22512
    D5        0.37540   0.00039   0.00168   0.02903   0.03088   0.40628
    D6       -2.78649   0.00461   0.03581   0.03551   0.07097  -2.71552
    D7        1.91275   0.00205   0.00293   0.05469   0.05808   1.97083
    D8       -1.22293  -0.00003   0.00065   0.05735   0.05772  -1.16521
    D9       -2.08241   0.00718   0.04671   0.07212   0.11888  -1.96353
   D10        1.08306   0.00225   0.00605   0.06497   0.07140   1.15446
   D11        2.70654   0.00580   0.04277   0.06895   0.11181   2.81834
   D12       -0.52980   0.00211   0.00215   0.05081   0.05278  -0.47702
   D13        2.80701   0.00082   0.00870   0.02964   0.03899   2.84600
   D14        0.80347   0.00055   0.00266   0.03351   0.03669   0.84016
   D15       -1.21377   0.00264   0.00577   0.05216   0.05676  -1.15702
   D16        2.38241   0.00083  -0.00119  -0.00356  -0.00278   2.37964
[...]
 0.00929111,-0.00605752,-0.01182567,-0.03572040,-0.01444359,-0.08264670
 ,-0.01923502,-0.01771299,-0.01137161,0.01258979,0.01228770,0.00605379,
 -0.01251333,-0.05893550,0.48889480,0.00176655,-0.00244472,0.00302957,-
 0.00006467,0.00028229,-0.00019203,0.00036769,0.00054227,-0.00061832,-0
 .00001853,-0.00000220,-0.00013746,-0.00711216,-0.00627781,0.02180812,-
 0.00147162,0.00037435,0.00067338,0.00025848,0.00008433,-0.00067640,0.0
 0161676,0.00136026,-0.00101153,-0.00428246,-0.01968517,0.01225253,0.00
 108057,0.00054299,-0.00011439,-0.00262056,-0.00275508,-0.00128345,-0.0
 6855723,-0.04108240,0.02701444,0.07195566,0.00167431,-0.00041528,-0.00
 014999,-0.00031305,0.00010214,0.00003866,-0.00054281,0.00095093,-0.000
 65520,-0.00024710,0.00006828,0.00008239,0.00291973,0.01858567,-0.00832
 848,0.00022275,-0.00000211,-0.00002372,0.00000050,-0.00008116,0.000017
 56,-0.00061589,0.00238472,-0.00028168,-0.00300337,-0.01889163,0.011756
 93,0.00026832,0.00034433,-0.00085378,-0.00349228,-0.00151492,-0.002357
 20,-0.04276012,-0.18218287,0.10190504,0.04930934,0.19303560,-0.0062930
 1,0.00331533,-0.00468985,0.00037023,-0.00016782,0.00042215,0.00012959,
 -0.00139046,0.00121437,0.00015597,-0.00025268,0.00003362,0.02395512,0.
 00918022,-0.03403137,0.00293794,-0.00037828,-0.00126494,-0.00060430,-0
 .00022140,0.00129876,0.00126697,0.00105302,0.00134760,-0.00462557,-0.0
 1268610,0.00806314,0.00053227,0.00034489,0.00151796,-0.00264070,-0.002
 32984,0.00002904,0.02974439,0.10401558,-0.12324581,-0.04536650,-0.1106
 8783,0.15362630,0.00425412,-0.00068084,0.00036013,-0.00085594,0.000005
 79,0.00006338,-0.00076958,0.00145894,-0.00038773,0.00001643,0.00020152
 ,-0.00009545,-0.01781113,0.01094584,0.00867839,-0.00128370,-0.00033279
 ,0.00131252,0.00013428,0.00022511,-0.00045355,-0.00417068,-0.00240267,
 -0.00148009,-0.01430304,0.01423100,-0.00562656,-0.00079517,-0.00099078
 ,-0.00095612,0.00071775,-0.00067280,0.00104934,-0.20006717,0.09377898,
 -0.05909832,0.00688921,-0.00354506,0.00083586,0.22761492,-0.00496627,-
 0.00154792,-0.00225181,0.00036894,0.00036874,0.00026461,0.00083945,-0.
 00051076,0.00009696,-0.00008740,-0.00013804,0.00011165,0.01803444,-0.0
 0666294,-0.00778678,0.00110955,0.00031737,-0.00062512,-0.00022197,-0.0
 0008402,0.00039433,-0.00486128,0.00008123,-0.00078197,-0.01512829,0.01
 036606,-0.00317394,0.00073971,-0.00021171,-0.00058861,0.00031936,0.001
 40547,0.00032636,0.09678736,-0.11302759,0.04025837,0.01971425,-0.01242
 155,0.01037829,-0.11248248,0.12211388,-0.00300259,-0.00201684,-0.00416
 193,-0.00006261,0.00022386,0.00030066,0.00078631,-0.00088244,0.0008589
 5,0.00002031,-0.00033655,0.00016093,0.03502770,-0.02049010,0.00294692,
 0.00115281,0.00052477,-0.00074732,0.00005448,-0.00014438,0.00019429,-0
 .00362540,-0.00146827,0.00099007,-0.00769771,0.01137881,-0.00116808,0.
 00054676,-0.00034801,-0.00042156,0.00040569,-0.00030039,0.00103609,-0.
 06405508,0.04086441,-0.07194979,-0.01538306,0.00954992,-0.00431309,0.0
 5584292,-0.03661505,0.07630188,-0.03339390,-0.00855695,-0.00342933,-0.
 17390523,-0.07943934,-0.01183800,0.00282682,0.00087710,-0.00018490,-0.
 00229967,-0.00241581,0.00038088,0.00187365,-0.00055016,-0.00022510,0.0
 0218314,-0.00278101,0.00606589,0.00035132,0.00006718,0.00096021,0.0027
 9660,-0.00531061,-0.00254895,-0.00095196,0.00044881,-0.00018966,0.0005
 8543,-0.00029747,-0.00053302,0.00045208,-0.00051880,0.00011018,-0.0005
 7642,0.00014744,0.00068082,0.00007437,0.00013883,-0.00020954,0.0003781
 1,-0.00013375,0.00004618,0.53065849,-0.02238162,0.00881029,-0.00389758
 ,-0.09201468,-0.17091729,-0.00589358,0.00435394,0.00461202,0.00042831,
 -0.00090138,-0.00117531,-0.00031910,0.00162752,-0.00109434,-0.00051568
 ,0.00321533,-0.00497419,0.00625734,0.00027381,-0.00023299,0.00129695,0
 .00457883,-0.00878764,-0.00334952,-0.00008006,-0.00007935,-0.00102016,
 0.00049125,-0.00029983,-0.00032165,0.00060722,-0.00060121,0.00011446,-
 0.00052427,0.00034788,0.00073356,-0.00001319,0.00001245,-0.00015066,0.
 00025272,-0.00015259,-0.00005058,-0.04365348,0.55511406,-0.00388888,-0
 .00178809,-0.00443120,-0.00726609,-0.00404419,-0.06565462,0.00080104,0
 .00128929,0.00326662,-0.00001511,-0.00097735,-0.00062367,0.00035969,-0
 .00018837,-0.00028289,-0.00060849,0.00037009,-0.00098529,0.00045599,0.
 00053446,-0.00012708,0.00248338,-0.00113297,-0.00083731,-0.00032138,0.
 00017520,-0.00003977,0.00007724,-0.00005065,-0.00007594,0.00007441,-0.
 00010398,0.00001107,-0.00007001,0.00006398,0.00019253,0.00002046,0.000
 02531,-0.00006119,0.00005057,-0.00001820,0.00000149,0.04551847,-0.0033
 9220,0.51656618,0.00699416,-0.00264132,-0.00138200,-0.03185389,-0.0139
 3432,-0.01862544,-0.00162255,-0.00119283,0.00060748,0.00024053,0.00060
 939,-0.00025248,-0.00056042,0.00027365,0.00027328,-0.00088376,0.000783
 27,-0.00153468,0.00008319,0.00027406,-0.00025405,-0.00070493,0.0007141
 6,0.00109095,0.00028561,-0.00010191,0.00001013,-0.00012058,0.00005532,
 0.00013024,-0.00003934,0.00008307,-0.00002994,0.00017475,-0.00010088,-
 0.00027291,-0.00002454,-0.00004137,0.00007178,-0.00008308,0.00005278,0
 .00000991,-0.11044692,0.02941103,-0.09986695,0.13526254,0.00240467,-0.
 00233566,-0.00056378,-0.02819958,-0.00085293,-0.02091975,-0.00073622,-
 0.00059457,0.00047556,-0.00004655,0.00015750,-0.00016787,-0.00007998,0
 .00010950,-0.00002140,-0.00037337,0.00098462,-0.00094429,-0.00009783,0
 .00017194,-0.00030117,-0.00000530,0.00048628,-0.00007637,-0.00001844,0
 .00000956,0.00004567,0.00000875,0.00001749,-0.00000836,-0.00004392,0.0
 0003659,0.00000388,0.00002788,-0.00003408,-0.00005530,0.00000522,0.000
 00264,0.00000191,-0.00001391,0.00001194,0.00000983,0.02905909,-0.05727
 045,0.03637524,-0.01539146,0.06127493,0.00405299,-0.00089107,-0.000575
 02,-0.00828281,-0.00791983,0.00667781,-0.00072289,-0.00054668,0.000116
 32,0.00011780,0.00040233,-0.00005717,-0.00044008,0.00014635,0.00026980
 ,-0.00069314,0.00018523,-0.00013407,0.00002368,0.00003792,-0.00008539,
 -0.00058085,0.00057235,0.00048877,0.00020051,-0.00013077,-0.00006681,-
 0.00006680,0.00003264,0.00009450,-0.00004795,0.00006615,-0.00002270,0.
 00009261,-0.00007170,-0.00019879,-0.00002121,-0.00002623,0.00005995,-0
 .00006201,0.00003288,0.00000267,-0.09773396,0.03473106,-0.20693468,0.1
 1540847,-0.03504525,0.22481226,0.00131529,-0.00422939,-0.00066760,0.00
 562121,-0.03217457,-0.00135252,-0.00089981,0.00028428,0.00015524,0.000
 39757,0.00053296,-0.00015380,0.00009407,0.00026257,0.00015826,-0.00007
 666,0.00030536,0.00019174,-0.00004773,0.00005543,-0.00004362,-0.000207
 32,-0.00019725,0.00005775,-0.00034017,0.00051021,-0.00007176,0.0001683
 3,-0.00006622,-0.00008369,0.00003153,-0.00007672,0.00002955,0.00001887
 ,-0.00014143,-0.00007252,0.00002100,0.00002361,-0.00001386,0.00004967,
 0.00002563,0.00003991,-0.09667840,0.09924183,0.00547873,-0.00661090,0.
 01415695,0.00165088,0.10631783,0.00598835,-0.00535490,0.00067479,-0.00
 999363,-0.03345957,-0.00366534,-0.00170889,-0.00022880,0.00011721,0.00
 058956,0.00090510,-0.00027840,-0.00018691,0.00052362,0.00022554,-0.000
 34457,0.00139435,-0.00076248,-0.00009040,0.00007084,-0.00026798,0.0012
 0388,0.00229510,0.00021729,-0.00039529,0.00066241,0.00028094,-0.000025
 26,0.00003266,0.00000803,-0.00011571,-0.00000475,0.00004001,0.00017471
 ,-0.00025575,-0.00019612,0.00002138,0.00001444,-0.00000241,0.00001187,
 0.00006222,0.00006902,0.09351793,-0.24034697,-0.01575650,0.00453315,-0
 .00364795,0.00038028,-0.09591569,0.27694089,-0.00079480,-0.00049533,0.
 00175515,0.00111538,-0.00291241,0.00289212,0.00002779,-0.00005092,-0.0
 0014128,-0.00000821,0.00001179,-0.00003028,0.00005279,-0.00006171,-0.0
 0031651,0.00033127,0.00025069,-0.00002705,-0.00008416,0.00003669,0.000
 08505,0.00009097,0.00007292,-0.00049699,0.00014158,-0.00031643,-0.0001
 1781,-0.00000437,0.00001547,-0.00000618,-0.00003528,0.00007701,0.00000
 488,-0.00007389,0.00011687,0.00009492,0.00000904,-0.00000793,-0.000021
 91,-0.00003195,-0.00002887,-0.00003588,0.00401822,-0.01344116,-0.05294
 756,-0.01328136,0.02373315,0.00221985,-0.00798477,0.01848970,0.0511473
 1,0.00153472,-0.00390339,0.00723307,-0.03558493,-0.01306162,0.02033778
 ,-0.00110127,-0.00035425,-0.00104876,0.00013999,0.00034142,0.00002511,
 0.00068019,0.00016609,-0.00099209,0.00244349,0.00083076,-0.00111816,0.
 00003738,0.00024893,-0.00029322,-0.00082119,0.00072683,-0.00016227,0.0
 0001928,0.00009593,0.00012726,-0.00002628,0.00000858,-0.00006449,-0.00
 007638,0.00010049,0.00001790,-0.00011724,0.00016963,0.00031382,0.00008
 079,0.00002138,-0.00015093,0.00004447,-0.00004706,-0.00002890,-0.11814
 699,0.01381140,0.04478435,0.01021538,0.00054708,-0.01962039,-0.0096324
 4,0.00316263,0.01537834,0.56568329,0.00228587,-0.00101770,-0.00081417,
 -0.03076435,-0.00679173,0.01984508,-0.00095152,-0.00153727,-0.00039981
 ,-0.00025866,0.00055709,0.00027169,-0.00047698,0.00008749,0.00068502,-
 0.00264682,-0.00091038,0.00177327,0.00010599,-0.00016197,0.00005601,0.
 00080843,0.00099201,0.00038214,-0.00026080,0.00059885,0.00011208,0.000
 00100,0.00001105,0.00002989,-0.00004649,-0.00006219,0.00002466,0.00015
 018,-0.00018407,-0.00022877,-0.00004377,-0.00001512,0.00008615,0.00000
 249,0.00005022,0.00005923,0.01499724,-0.08144706,-0.01341474,-0.003220
 20,0.00027896,0.00863827,0.02006242,-0.00176016,-0.02541984,0.02647350
 ,0.57785242,0.00412456,-0.00262979,0.00830380,-0.00456757,0.00324433,0
 .00431367,-0.00150264,-0.00050606,-0.00110064,0.00029672,0.00058864,0.
 00011523,0.00084608,-0.00002069,-0.00170541,0.00574398,0.00234475,-0.0
 0507069,-0.00028544,0.00029917,-0.00048975,-0.00164254,0.00027237,-0.0
 0045333,0.00051726,-0.00038329,0.00002213,-0.00006494,0.00001411,-0.00
 004482,-0.00007523,0.00017505,-0.00000743,-0.00010240,0.00031146,0.000
 46354,0.00010283,0.00000868,-0.00019959,-0.00000453,-0.00006604,-0.000
 08770,0.06266900,-0.01118083,-0.14592464,0.01409031,-0.00389658,-0.021
 38238,0.00061291,0.00136589,-0.00380419,0.01978745,0.01922499,0.469645
 60,-0.00058182,0.00106563,-0.00048563,0.00276261,-0.00048740,-0.002019
 37,0.00014644,-0.00021197,0.00002262,-0.00011197,-0.00001890,0.0000784
 6,-0.00009501,-0.00010668,0.00006427,-0.00047738,-0.00054591,0.0003989
 7,0.00002269,-0.00000988,0.00004091,-0.00019459,-0.00034586,0.00000310
 ,0.00010980,-0.00014875,-0.00007608,-0.00000428,-0.00000170,0.00001550
 ,0.00002068,-0.00000617,-0.00000692,-0.00001049,0.00002938,-0.00000865
 ,-0.00001472,-0.00001073,0.00002268,-0.00001585,-0.00000471,-0.0000094
 9,-0.00686004,0.02212529,0.00645380,0.00022761,-0.00053463,0.00024306,
 -0.00183399,0.00028672,0.00334630,-0.07496224,0.06387684,0.01308894,0.
 08034163,-0.00058613,-0.00070895,0.00072087,0.00024607,0.00302265,0.00
 083848,0.00016382,0.00047005,-0.00007904,0.00006579,-0.00016092,-0.000
 03797,0.00026834,0.00005980,-0.00018688,0.00080189,0.00050567,-0.00046
 465,-0.00006136,-0.00000886,-0.00004552,0.00011614,0.00018578,-0.00008
 646,-0.00016777,0.00005328,0.00008153,0.00001396,-0.00000577,-0.000038
 41,-0.00000406,0.00000257,0.00000346,-0.00005276,0.00001819,0.00008703
 ,0.00002732,0.00002403,-0.00004579,0.00003278,-0.00001555,0.00000165,-
 0.00120015,-0.00557728,-0.00034056,0.00035255,0.00010183,-0.00130744,-
 0.00039985,0.00108108,-0.00081736,0.06858846,-0.25377473,-0.03548113,-
 0.08284961,0.27972867,0.00003251,-0.00042513,-0.00084726,-0.00275894,0
 .00130653,0.00183429,0.00001341,0.00001329,0.00006126,0.00001878,-0.00
 001389,0.00001037,-0.00008487,0.00007254,0.00024119,-0.00066663,-0.000
 29664,0.00054632,0.00003174,-0.00001033,0.00000581,0.00045097,0.000319
 74,0.00008714,-0.00016769,0.00022024,0.00005751,0.00001542,-0.00000343
 ,-0.00000316,-0.00000971,-0.00002696,0.00000609,0.00003202,-0.00007622
 ,-0.00007112,-0.00000674,0.00000734,0.00002000,0.00001564,0.00001452,0
 .00002429,0.01071260,-0.02788845,-0.00428218,-0.00101338,0.00014260,0.
 00076120,0.00373818,0.00058636,-0.00385764,0.01174741,-0.03387247,-0.0
 5155299,-0.00625869,0.02715574,0.06525479,0.00245677,-0.00059231,-0.00
 003691,-0.00484969,-0.00045789,0.00448638,-0.00061162,-0.00056896,-0.0
 0003429,0.00004746,0.00030037,-0.00001107,-0.00045640,0.00013614,0.000
 26324,-0.00103920,-0.00004360,0.00028804,-0.00002456,-0.00003782,0.000
 02485,-0.00049910,0.00053406,0.00039261,0.00023520,-0.00010841,-0.0000
 2560,-0.00005091,0.00002983,0.00007413,-0.00005234,0.00008001,-0.00003
 007,0.00010113,-0.00008201,-0.00018269,-0.00001917,-0.00001708,0.00005
 675,-0.00006436,0.00003524,0.00000282,-0.01269104,-0.01479509,-0.00741
 685,0.00113226,-0.00009405,0.00080930,-0.00004665,0.00092294,-0.000438
 99,-0.19206670,-0.11294142,-0.02065886,0.00864981,0.00523422,0.0021787
 1,0.21642504,0.00152159,-0.00034148,0.00032376,-0.00189208,0.00132177,
 0.00073414,-0.00026801,-0.00012384,0.00004310,0.00011057,0.00011581,-0
 .00008101,-0.00020130,0.00007362,0.00004102,-0.00005015,0.00016692,-0.
 00031540,0.00001834,0.00000459,-0.00001733,-0.00045296,0.00035662,0.00
 022245,0.00015192,-0.00007490,-0.00000790,-0.00003837,0.00001953,0.000
 04588,-0.00003284,0.00005128,-0.00001371,0.00005897,-0.00002643,-0.000
 07897,-0.00000642,-0.00001314,0.00002201,-0.00003893,0.00001804,-0.000
 00516,0.00307918,-0.00031025,-0.00204727,-0.00028299,-0.00012593,0.001
 05045,-0.00020436,0.00035799,0.00050781,-0.11883758,-0.14664916,-0.022
 50873,-0.02319735,-0.01852212,-0.00276653,0.12676436,0.15186799,-0.001
 66549,0.00120996,-0.00186197,0.00693259,0.00003087,-0.00377422,0.00062
 462,0.00040175,0.00028806,-0.00002481,-0.00025126,-0.00002082,-0.00012
 740,-0.00005325,0.00026839,-0.00110418,-0.00046760,0.00111201,0.000004
 58,-0.00006140,0.00012166,0.00029954,-0.00037324,-0.00002966,-0.000059
 07,-0.00003168,-0.00003307,0.00002249,-0.00000764,-0.00000267,0.000035
 42,-0.00003706,-0.00000117,-0.00001261,-0.00003358,-0.00005209,-0.0000
 1877,-0.00000032,0.00003123,-0.00000082,0.00000562,0.00000885,0.016409
 72,0.01722402,0.00698473,-0.00070146,0.00063416,0.00055720,-0.00057690
 ,-0.00089864,0.00052606,-0.01816866,-0.02051248,-0.05130182,-0.0040340
 0,-0.00524870,0.00092336,0.03617637,0.02007038,0.06533941,-0.00295983,
 0.00489168,-0.01396644,0.00885648,0.00150021,0.00198445,0.00072696,-0.
 00115365,0.00157591,-0.00029948,-0.00012863,-0.00003070,-0.00305182,0.
 00036837,0.00349453,-0.02134202,-0.00538284,0.00775478,-0.00036487,-0.
 00224649,0.00277786,0.00061458,0.00008483,0.00158213,0.00017585,-0.000
 13691,-0.00020936,-0.00002930,0.00006832,0.00026314,0.00002444,-0.0000
 0598,-0.00008156,0.00039870,-0.00072911,-0.00115083,-0.00024690,-0.000
 06307,0.00050662,-0.00024349,0.00020750,0.00012789,0.00603996,-0.00663
 732,0.01079853,-0.00044153,-0.00024114,0.00416046,0.00213014,-0.001637
 16,-0.00140789,-0.12663959,0.02276883,-0.08250205,-0.00785044,0.011274
 10,-0.01937087,-0.01881023,0.01195965,-0.03541300,0.58628712,0.0012467
 1,-0.00130644,-0.00059571,0.00057644,0.00207611,0.00034557,-0.00027578
 ,0.00027835,0.00017974,0.00014202,0.00003593,-0.00018314,-0.00048721,0
 .00027018,0.00032406,-0.00312844,0.00419133,-0.00094295,-0.00064613,-0
 .00048563,0.00104069,-0.00031462,0.00059690,0.00020589,0.00009949,-0.0
 0025885,0.00009374,-0.00001283,0.00004540,0.00002066,-0.00006950,0.000
 15233,-0.00003775,0.00004916,-0.00016682,-0.00015421,-0.00000164,0.000
 03114,0.00004541,-0.00005857,0.00003029,0.00000981,0.00082215,0.000608
 44,0.00229545,-0.00015526,0.00176683,-0.00061819,-0.00216923,0.0013711
 0,0.00081638,0.00696511,-0.08844483,0.04863394,0.01916382,-0.00497742,
 0.03354387,-0.00382762,0.01199481,-0.01129253,0.08460916,0.12059981,-0
 .00561090,0.00142286,-0.00541325,0.00598359,0.00105767,0.00586664,0.00
 128062,0.00055658,0.00073234,-0.00037387,-0.00058463,-0.00010167,-0.00
 017518,-0.00003713,0.00114364,0.00086702,-0.00181837,0.00837278,0.0010
 0328,0.00055297,-0.00041958,0.00168414,-0.00038488,0.00030445,-0.00065
 906,0.00047184,-0.00000478,0.00008734,-0.00003669,-0.00001508,0.000083
 61,-0.00018874,0.00002937,-0.00003924,-0.00019034,-0.00027496,-0.00005
 464,0.00001362,0.00010089,0.00008728,0.00001172,0.00008239,-0.02777249
 ,0.01151444,-0.04174332,0.00509220,0.00092393,-0.00767435,-0.00153438,
 -0.00017452,0.00371172,-0.03578162,0.05270072,-0.19452130,-0.01049648,
 0.01486116,-0.00879583,-0.01207588,0.00277468,-0.01325863,0.06873436,-
 0.10308344,0.29883029,0.00385140,-0.00678272,0.02012624,-0.00789742,-0
 .00040368,-0.00275817,-0.00085863,0.00173696,-0.00219834,0.00040704,0.
 00021564,-0.00001779,0.00450146,-0.00050840,-0.00479779,0.00312529,0.0
 0257599,-0.00800033,-0.00024778,0.00227639,-0.00318533,-0.00075186,-0.
 00027412,-0.00234368,-0.00029083,0.00033603,0.00019603,0.00003816,-0.0
 0012285,-0.00033883,-0.00000383,-0.00006694,0.00012898,-0.00053263,0.0
 0099120,0.00163567,0.00032147,0.00007318,-0.00068178,0.00036422,-0.000
 30098,-0.00019885,0.00773059,0.00101094,0.00209712,-0.00122358,-0.0003
 3326,0.00151233,0.00020857,0.00000040,-0.00036601,-0.02170375,0.000078
 22,-0.01047382,0.00073154,-0.00186375,0.00135014,0.00223431,0.00183876
 ,0.00140184,-0.42297474,-0.10252722,0.00967031,0.43297098,-0.00146016,
 0.00071862,0.00309449,-0.00090285,-0.00153427,-0.00259816,0.00016261,-
 0.00011736,-0.00039620,-0.00004202,-0.00006291,0.00021678,0.00097224,-
 0.00015603,-0.00088018,0.00008743,-0.00664891,0.00187405,0.00130235,0.
 00039879,-0.00194419,0.00001070,-0.00059551,-0.00043807,-0.00001294,0.
 00013249,-0.00005709,0.00000060,-0.00004939,-0.00004566,0.00005154,-0.
 00010955,0.00002852,-0.00011304,0.00030695,0.00030729,0.00004838,-0.00
 001860,-0.00012952,0.00007179,-0.00005280,-0.00003351,0.00170258,0.003
 76158,0.00212605,-0.00007988,-0.00054905,0.00028126,0.00011346,-0.0006
 5295,-0.00057651,0.01394567,0.00232828,0.00018974,0.00193257,-0.001501
 99,0.00199729,-0.00047091,-0.00016172,-0.00030740,-0.11937034,-0.04840
 898,0.01963655,0.10205021,0.05297329,0.00556576,0.00130661,-0.00180978
 ,0.00026419,-0.00030191,0.00143009,-0.00062141,-0.00064561,0.00000713,
 0.00014706,0.00036483,0.00001840,-0.00048340,0.00008055,0.00013515,-0.
 00154443,0.00209510,-0.00919024,-0.00185800,-0.00157988,0.00142122,-0.
 00087897,0.00029166,0.00043783,0.00044595,-0.00026747,-0.00004327,-0.0
 0008133,0.00004420,0.00008652,-0.00004876,0.00010274,-0.00004014,0.000
 18726,-0.00003796,-0.00009787,-0.00002585,-0.00003309,0.00006273,-0.00
 009888,0.00004108,-0.00002412,-0.00290722,-0.00087898,-0.00207127,0.00
 042988,-0.00034583,0.00107103,0.00044230,-0.00045267,-0.00063377,-0.04
 232298,-0.00922691,-0.00521729,-0.00038329,0.00043000,-0.00042344,-0.0
 0384199,0.00200633,-0.00582483,0.05037204,0.02935272,-0.04695175,-0.00
 275794,-0.02234553,0.06765769\\-0.00014330,0.00058251,0.00122298,0.000
 03166,-0.00031606,-0.00067760,-0.00000495,0.00005200,0.00003585,0.0000
 0149,0.00000354,0.00000347,0.00010845,-0.00031449,-0.00063414,0.000093
 30,0.00003868,-0.00005695,-0.00002689,-0.00000823,0.00002054,-0.000009
 97,0.00002843,0.00001469,0.00001573,-0.00001477,-0.00000761,-0.0000058
 1,-0.00000339,0.00000538,0.00000311,0.00000652,0.00000391,-0.00000975,
 -0.00003522,0.00003512,-0.00000356,-0.00000093,-0.00000088,0.00000449,
 0.00000118,-0.00000540,-0.00000581,0.00002694,0.00002666,0.00000449,-0
 .00000997,-0.00000596,0.00000284,-0.00000302,-0.00000180,0.00000305,-0
 .00003313,0.00004231,0.00000959,0.00000830,-0.00001844,-0.00000513,0.0
 0000957,0.00001025,-0.00011082,-0.00004495,-0.00003342,0.00004779,0.00
 002650,0.00002105\\\@
 The archive entry for this job was punched.


 KNOWLEDGE IS EXPERIMENT'S DAUGHTER.
 -- LEONARDO DA VINCI, IN "PENSIERI" CA. 1492
 Job cpu time:       0 days  5 hours 14 minutes 35.1 seconds.
 Elapsed time:       0 days  1 hours 18 minutes 52.0 seconds.
 File lengths (MBytes):  RWF=    456 Int=      0 D2E=      0 Chk=     21 Scr=      1
 Normal termination of Gaussian 16 at Sat Mar 30 08:20:19 2024.
