 Entering Gaussian System, Link 0=/opt/software/gaussian/g16.c01/g16
 Initial command:
 /opt/software/gaussian/g16.c01/l1.exe "/scratch/arhender/18457980/Gau-126564.inp" -scrdir="/scratch/arhender/18457980/"
 Entering Link 1 = /opt/software/gaussian/g16.c01/l1.exe PID=    126576.
  
 Copyright (c) 1988-2019, Gaussian, Inc.  All Rights Reserved.
  
 This is part of the Gaussian(R) 16 program.  It is based on
 the Gaussian(R) 09 system (copyright 2009, Gaussian, Inc.),
 the Gaussian(R) 03 system (copyright 2003, Gaussian, Inc.),
 the Gaussian(R) 98 system (copyright 1998, Gaussian, Inc.),
 the Gaussian(R) 94 system (copyright 1995, Gaussian, Inc.),
 the Gaussian 92(TM) system (copyright 1992, Gaussian, Inc.),
 the Gaussian 90(TM) system (copyright 1990, Gaussian, Inc.),
 the Gaussian 88(TM) system (copyright 1988, Gaussian, Inc.),
 the Gaussian 86(TM) system (copyright 1986, Carnegie Mellon
 University), and the Gaussian 82(TM) system (copyright 1983,
 Carnegie Mellon University). Gaussian is a federally registered
 trademark of Gaussian, Inc.
  
 This software contains proprietary and confidential information,
 including trade secrets, belonging to Gaussian, Inc.
  
 This software is provided under written license and may be
 used, copied, transmitted, or stored only in accord with that
 written license.
  
 The following legend is applicable only to US Government
 contracts under FAR:
  
                    RESTRICTED RIGHTS LEGEND
  
 Use, reproduction and disclosure by the US Government is
 subject to restrictions as set forth in subparagraphs (a)
 and (c) of the Commercial Computer Software - Restricted
 Rights clause in FAR 52.227-19.
  
 Gaussian, Inc.
 340 Quinnipiac St., Bldg. 40, Wallingford CT 06492
  
  
 ---------------------------------------------------------------
 Warning -- This program may not be used in any manner that
 competes with the business of Gaussian, Inc. or will provide
 assistance to any competitor of Gaussian, Inc.  The licensee
 of this program is prohibited from giving any competitor of
 Gaussian, Inc. access to this program.  By using this program,
 the user acknowledges that Gaussian, Inc. is engaged in the
 business of creating and licensing software in the field of
 computational chemistry and represents and warrants to the
 licensee that it is not a competitor of Gaussian, Inc. and that
 it will not use this program in any manner prohibited above.
 ---------------------------------------------------------------
  

 Cite this work as:
 Gaussian 16, Revision C.01,
 M. J. Frisch, G. W. Trucks, H. B. Schlegel, G. E. Scuseria, 
 M. A. Robb, J. R. Cheeseman, G. Scalmani, V. Barone, 
 G. A. Petersson, H. Nakatsuji, X. Li, M. Caricato, A. V. Marenich, 
 J. Bloino, B. G. Janesko, R. Gomperts, B. Mennucci, H. P. Hratchian, 
 J. V. Ortiz, A. F. Izmaylov, J. L. Sonnenberg, D. Williams-Young, 
 F. Ding, F. Lipparini, F. Egidi, J. Goings, B. Peng, A. Petrone, 
 T. Henderson, D. Ranasinghe, V. G. Zakrzewski, J. Gao, N. Rega, 
 G. Zheng, W. Liang, M. Hada, M. Ehara, K. Toyota, R. Fukuda, 
 J. Hasegawa, M. Ishida, T. Nakajima, Y. Honda, O. Kitao, H. Nakai, 
 T. Vreven, K. Throssell, J. A. Montgomery, Jr., J. E. Peralta, 
 F. Ogliaro, M. J. Bearpark, J. J. Heyd, E. N. Brothers, K. N. Kudin, 
 V. N. Staroverov, T. A. Keith, R. Kobayashi, J. Normand, 
 K. Raghavachari, A. P. Rendell, J. C. Burant, S. S. Iyengar, 
 J. Tomasi, M. Cossi, J. M. Millam, M. Klene, C. Adamo, R. Cammi, 
 J. W. Ochterski, R. L. Martin, K. Morokuma, O. Farkas, 
 J. B. Foresman, and D. J. Fox, Gaussian, Inc., Wallingford CT, 2019.
 
 ******************************************
 Gaussian 16:  ES64L-G16RevC.01  3-Jul-2019
                15-Nov-2023 
 ******************************************
 %chk=PL1BidentConfSearch_6.chk
 %mem=8GB
 %nprocs=16
 Will use up to   16 processors via shared memory.
 ---------------------------------------------
 # opt freq wb97xd/def2tzvpp geom=connectivity
 ---------------------------------------------
 1/18=20,19=15,26=3,38=1,57=2/1,3;
 2/9=110,12=2,17=6,18=5,40=1/2;
 3/5=44,7=202,11=2,25=1,30=1,71=1,74=-58/1,2,3;
 4//1;
 5/5=2,38=5/2;
 6/7=2,8=2,9=2,10=2,28=1/1;
 7//1,2,3,16;
 1/18=20,19=15,26=3/3(2);
 2/9=110/2;
 99//99;
 2/9=110/2;
 3/5=44,7=202,11=2,25=1,30=1,71=1,74=-58/1,2,3;
 4/5=5,16=3,69=1/1;
 5/5=2,38=5/2;
 7//1,2,3,16;
 1/18=20,19=15,26=3/3(-5);
 2/9=110/2;
 6/7=2,8=2,9=2,10=2,19=2,28=1/1;
 99/9=1/99;
 -------------------------------------------
 Bidentate QL1 complex with EG conformer opt
 -------------------------------------------
 Symbolic Z-matrix:
 Charge = -1 Multiplicity = 1
 Si                    0.        0.        0. 
 O                     1.6732    0.        0. 
 H                     1.9734    0.9213    0. 
 O                     0.1756   -1.2747   -1.0582 
 H                     1.117    -1.3659   -1.2686 
 O                     0.0287    1.2669    1.1092 
 O                     0.2014    0.9467   -1.3754 
 H                    -0.3654    0.5762   -2.0677 
 O                    -1.6598    0.1382   -0.2541 
 C                    -2.253     0.9308    0.7701 
 H                    -3.1849    1.376     0.4105 
 H                    -2.4777    0.2865    1.6291 
 C                    -1.2112    1.9735    1.1037 
 H                    -1.3888    2.4364    2.0787 
 H                    -1.1642    2.7633    0.3435 
 

 GradGradGradGradGradGradGradGradGradGradGradGradGradGradGradGradGradGrad
 Berny optimization.
 Initialization pass.
                           ----------------------------
                           !    Initial Parameters    !
                           ! (Angstroms and Degrees)  !
 --------------------------                            --------------------------
 ! Name  Definition              Value          Derivative Info.                !
 --------------------------------------------------------------------------------
 ! R1    R(1,2)                  1.6732         estimate D2E/DX2                !
 ! R2    R(1,4)                  1.666          estimate D2E/DX2                !
 ! R3    R(1,6)                  1.6841         estimate D2E/DX2                !
 ! R4    R(1,7)                  1.6818         estimate D2E/DX2                !
 ! R5    R(1,9)                  1.6848         estimate D2E/DX2                !
 ! R6    R(2,3)                  0.969          estimate D2E/DX2                !
 ! R7    R(4,5)                  0.9689         estimate D2E/DX2                !
 ! R8    R(6,13)                 1.4271         estimate D2E/DX2                !
 ! R9    R(7,8)                  0.9684         estimate D2E/DX2                !
 ! R10   R(9,10)                 1.4245         estimate D2E/DX2                !
 ! R11   R(10,11)                1.0936         estimate D2E/DX2                !
 ! R12   R(10,12)                1.097          estimate D2E/DX2                !
 ! R13   R(10,13)                1.5112         estimate D2E/DX2                !
 ! R14   R(13,14)                1.0938         estimate D2E/DX2                !
 ! R15   R(13,15)                1.0972         estimate D2E/DX2                !
 ! A1    A(2,1,4)               83.9496         estimate D2E/DX2                !
 ! A2    A(2,1,6)               89.0235         estimate D2E/DX2                !
 ! A3    A(2,1,7)               83.1223         estimate D2E/DX2                !
 ! A4    A(4,1,7)               84.1813         estimate D2E/DX2                !
 ! A5    A(4,1,9)               94.0601         estimate D2E/DX2                !
 ! A6    A(6,1,7)               96.4961         estimate D2E/DX2                !
 ! A7    A(6,1,9)               93.1193         estimate D2E/DX2                !
 ! A8    A(7,1,9)               87.0457         estimate D2E/DX2                !
 ! A9    A(1,2,3)              108.0479         estimate D2E/DX2                !
 ! A10   A(1,4,5)              108.2012         estimate D2E/DX2                !
 ! A11   A(1,6,13)             110.801          estimate D2E/DX2                !
 ! A12   A(1,7,8)              107.4088         estimate D2E/DX2                !
 ! A13   A(1,9,10)             110.3319         estimate D2E/DX2                !
 ! A14   A(9,10,11)            110.1791         estimate D2E/DX2                !
 ! A15   A(9,10,12)            108.7538         estimate D2E/DX2                !
 ! A16   A(9,10,13)            104.8061         estimate D2E/DX2                !
 ! A17   A(11,10,12)           108.7855         estimate D2E/DX2                !
 ! A18   A(11,10,13)           112.2806         estimate D2E/DX2                !
 ! A19   A(12,10,13)           111.936          estimate D2E/DX2                !
 ! A20   A(6,13,10)            104.9612         estimate D2E/DX2                !
 ! A21   A(6,13,14)            110.314          estimate D2E/DX2                !
 ! A22   A(6,13,15)            108.775          estimate D2E/DX2                !
 ! A23   A(10,13,14)           112.1371         estimate D2E/DX2                !
 ! A24   A(10,13,15)           111.9152         estimate D2E/DX2                !
 ! A25   A(14,13,15)           108.6574         estimate D2E/DX2                !
 ! A26   L(2,1,9,4,-1)         178.0097         estimate D2E/DX2                !
 ! A27   L(4,1,6,2,-1)         172.9731         estimate D2E/DX2                !
 ! A28   L(2,1,9,4,-2)         189.7216         estimate D2E/DX2                !
 ! A29   L(4,1,6,2,-2)         181.5049         estimate D2E/DX2                !
 ! D1    D(4,1,2,3)            140.302          estimate D2E/DX2                !
 ! D2    D(6,1,2,3)            -41.2029         estimate D2E/DX2                !
 ! D3    D(7,1,2,3)             55.46           estimate D2E/DX2                !
 ! D4    D(2,1,4,5)             -6.4646         estimate D2E/DX2                !
 ! D5    D(7,1,4,5)             77.206          estimate D2E/DX2                !
 ! D6    D(9,1,4,5)            163.8138         estimate D2E/DX2                !
 ! D7    D(2,1,6,13)           159.3906         estimate D2E/DX2                !
 ! D8    D(7,1,6,13)            76.4261         estimate D2E/DX2                !
 ! D9    D(9,1,6,13)           -10.9521         estimate D2E/DX2                !
 ! D10   D(2,1,7,8)            130.9693         estimate D2E/DX2                !
 ! D11   D(4,1,7,8)             46.3875         estimate D2E/DX2                !
 ! D12   D(6,1,7,8)           -140.8078         estimate D2E/DX2                !
 ! D13   D(9,1,7,8)            -48.0013         estimate D2E/DX2                !
 ! D14   D(4,1,9,10)           164.5939         estimate D2E/DX2                !
 ! D15   D(6,1,9,10)           -15.1059         estimate D2E/DX2                !
 ! D16   D(7,1,9,10)          -111.4582         estimate D2E/DX2                !
 ! D17   D(1,6,13,10)           31.7646         estimate D2E/DX2                !
 ! D18   D(1,6,13,14)          152.7513         estimate D2E/DX2                !
 ! D19   D(1,6,13,15)          -88.1615         estimate D2E/DX2                !
 ! D20   D(1,9,10,11)          155.7724         estimate D2E/DX2                !
 ! D21   D(1,9,10,12)          -85.0773         estimate D2E/DX2                !
 ! D22   D(1,9,10,13)           34.7781         estimate D2E/DX2                !
 ! D23   D(9,10,13,6)          -41.4105         estimate D2E/DX2                !
 ! D24   D(9,10,13,14)        -161.1894         estimate D2E/DX2                !
 ! D25   D(9,10,13,15)          76.4034         estimate D2E/DX2                !
 ! D26   D(11,10,13,6)        -161.0074         estimate D2E/DX2                !
 ! D27   D(11,10,13,14)         79.2137         estimate D2E/DX2                !
 ! D28   D(11,10,13,15)        -43.1935         estimate D2E/DX2                !
 ! D29   D(12,10,13,6)          76.2965         estimate D2E/DX2                !
 ! D30   D(12,10,13,14)        -43.4824         estimate D2E/DX2                !
 ! D31   D(12,10,13,15)       -165.8896         estimate D2E/DX2                !
 --------------------------------------------------------------------------------
 Trust Radius=3.00D-01 FncErr=1.00D-07 GrdErr=1.00D-06 EigMax=2.50D+02 EigMin=1.00D-04
 Number of steps in this run=     85 maximum allowed number of steps=    100.
 GradGradGradGradGradGradGradGradGradGradGradGradGradGradGradGradGradGrad

                          Input orientation:                          
 ---------------------------------------------------------------------
 Center     Atomic      Atomic             Coordinates (Angstroms)
 Number     Number       Type             X           Y           Z
 ---------------------------------------------------------------------
      1         14           0        0.000000    0.000000    0.000000
      2          8           0        1.673200    0.000000    0.000000
      3          1           0        1.973400    0.921300    0.000000
      4          8           0        0.175600   -1.274700   -1.058200
      5          1           0        1.117000   -1.365900   -1.268600
      6          8           0        0.028700    1.266900    1.109200
      7          8           0        0.201400    0.946700   -1.375400
      8          1           0       -0.365400    0.576200   -2.067700
      9          8           0       -1.659800    0.138200   -0.254100
     10          6           0       -2.253000    0.930800    0.770100
     11          1           0       -3.184900    1.376000    0.410500
     12          1           0       -2.477700    0.286500    1.629100
     13          6           0       -1.211200    1.973500    1.103700
     14          1           0       -1.388800    2.436400    2.078700
     15          1           0       -1.164200    2.763300    0.343500
 ---------------------------------------------------------------------
                    Distance matrix (angstroms):
                    1          2          3          4          5
     1  Si   0.000000
     2  O    1.673200   0.000000
     3  H    2.177866   0.968976   0.000000
     4  O    1.665978   2.233261   3.028909   0.000000
     5  H    2.173181   1.945350   2.752099   0.968927   0.000000
     6  O    1.684097   2.353665   2.265308   3.343491   3.710790
     7  O    1.681823   2.225795   2.243291   2.244081   2.489548
     8  H    2.177362   2.960284   3.140774   2.176603   2.570569
     9  O    1.684815   3.345528   3.725313   2.451848   3.316948
    10  C    2.556453   4.107857   4.295998   3.755664   4.559389
    11  H    3.493633   5.065868   5.194547   4.525069   5.370636
    12  H    2.979102   4.468335   4.782178   4.086432   4.903974
    13  C    2.565124   3.665054   3.530858   4.140994   4.711679
    14  H    3.490817   4.430901   4.233310   5.104875   5.651631
    15  H    3.018142   3.975507   3.654516   4.479428   4.985282
                    6          7          8          9         10
     6  O    0.000000
     7  O    2.511093   0.000000
     8  H    3.274916   0.968407   0.000000
     9  O    2.446136   2.318416   2.270784   0.000000
    10  C    2.331117   3.259985   3.426643   1.424460   0.000000
    11  H    3.290488   3.852371   3.838064   2.073589   1.093596
    12  H    2.741080   4.079272   4.267560   2.058494   1.097039
    13  C    1.427118   3.032440   3.567296   2.326626   1.511244
    14  H    2.077731   4.083962   4.658361   3.285897   2.173961
    15  H    2.061194   2.849476   3.351921   2.737498   2.173828
                   11         12         13         14         15
    11  H    0.000000
    12  H    1.781047   0.000000
    13  C    2.175551   2.173945   0.000000
    14  H    2.670827   2.451512   1.093820   0.000000
    15  H    2.452003   3.084248   1.097222   1.779952   0.000000
 Stoichiometry    C2H7O5Si(1-)
 Framework group  C1[X(C2H7O5Si)]
 Deg. of freedom    39
 Full point group                 C1      NOp   1
 Largest Abelian subgroup         C1      NOp   1
 Largest concise Abelian subgroup C1      NOp   1
                         Standard orientation:                         
 ---------------------------------------------------------------------
 Center     Atomic      Atomic             Coordinates (Angstroms)
 Number     Number       Type             X           Y           Z
 ---------------------------------------------------------------------
      1         14           0       -0.455823   -0.025415   -0.308223
      2          8           0       -1.663443    1.132622   -0.322426
      3          1           0       -1.410149    1.838040    0.291692
      4          8           0       -1.727867   -1.099047   -0.376786
      5          1           0       -2.552272   -0.597490   -0.289514
      6          8           0        0.688650    1.209819   -0.284503
      7          8           0       -0.761738   -0.033150    1.345526
      8          1           0       -0.865538   -0.957014    1.616658
      9          8           0        0.693743   -1.221182   -0.012858
     10          6           0        2.005358   -0.713263   -0.238182
     11          1           0        2.736812   -1.289925    0.334869
     12          1           0        2.240750   -0.805544   -1.305687
     13          6           0        1.941407    0.730714    0.203067
     14          1           0        2.761865    1.324630   -0.209917
     15          1           0        1.954712    0.825903    1.296072
 ---------------------------------------------------------------------
 Rotational constants (GHZ):           3.2925326           1.7216101           1.4104274
 Standard basis: def2TZVPP (5D, 7F)
 There are   405 symmetry adapted cartesian basis functions of A   symmetry.
 There are   357 symmetry adapted basis functions of A   symmetry.
   357 basis functions,   545 primitive gaussians,   405 cartesian basis functions
    37 alpha electrons       37 beta electrons
       nuclear repulsion energy       562.7516958121 Hartrees.
 NAtoms=   15 NActive=   15 NUniq=   15 SFac= 1.00D+00 NAtFMM=   60 NAOKFM=F Big=F
 Integral buffers will be    131072 words long.
 Raffenetti 2 integral format.
 Two-electron integral symmetry is turned on.
 Nuclear repulsion after empirical dispersion term =      562.7452938391 Hartrees.
 One-electron integrals computed using PRISM.
   1 Symmetry operations used in ECPInt.
 ECPInt:  NShTT=    8911 NPrTT=   25186 LenC2=    8706 LenP2D=   19819.
 LDataN:  DoStor=T MaxTD1= 6 Len=  172
 NBasis=   357 RedAO= T EigKep=  3.05D-04  NBF=   357
 NBsUse=   357 1.00D-06 EigRej= -1.00D+00 NBFU=   357
 ExpMin= 7.01D-02 ExpMax= 4.48D+04 ExpMxC= 1.53D+03 IAcc=3 IRadAn=         5 AccDes= 0.00D+00
 Harris functional with IExCor= 4639 and IRadAn=       5 diagonalized for initial guess.
 HarFok:  IExCor= 4639 AccDes= 0.00D+00 IRadAn=         5 IDoV= 1 UseB2=F ITyADJ=14
 ICtDFT=  3500011 ScaDFX=  1.000000  1.000000  1.000000  1.000000
 FoFCou: FMM=F IPFlag=           0 FMFlag=      100000 FMFlg1=           0
         NFxFlg=           0 DoJE=T BraDBF=F KetDBF=T FulRan=T
         wScrn=  0.000000 ICntrl=       500 IOpCl=  0 I1Cent=   200000004 NGrid=           0
         NMat0=    1 NMatS0=      1 NMatT0=    0 NMatD0=    1 NMtDS0=    0 NMtDT0=    0
 Petite list used in FoFCou.
 Requested convergence on RMS density matrix=1.00D-08 within 128 cycles.
 Requested convergence on MAX density matrix=1.00D-06.
 Requested convergence on             energy=1.00D-06.
 No special actions if energy rises.
 Integral accuracy reduced to 1.0D-05 until final iterations.
 Initial convergence to 1.0D-05 achieved.  Increase integral accuracy.
 SCF Done:  E(RwB97XD) =  -746.238187141     A.U. after   14 cycles
            NFock= 14  Conv=0.70D-08     -V/T= 2.0024

 **********************************************************************

            Population analysis using the SCF Density.

 **********************************************************************

 Orbital symmetries:
       Occupied  (A) (A) (A) (A) (A) (A) (A) (A) (A) (A) (A) (A)
                 (A) (A) (A) (A) (A) (A) (A) (A) (A) (A) (A) (A)
                 (A) (A) (A) (A) (A) (A) (A) (A) (A) (A) (A) (A)
                 (A)
       Virtual   (A) (A) (A) (A) (A) (A) (A) (A) (A) (A) (A) (A)
                 (A) (A) (A) (A) (A) (A) (A) (A) (A) (A) (A) (A)
                 (A) (A) (A) (A) (A) (A) (A) (A) (A) (A) (A) (A)
                 (A) (A) (A) (A) (A) (A) (A) (A) (A) (A) (A) (A)
                 (A) (A) (A) (A) (A) (A) (A) (A) (A) (A) (A) (A)
                 (A) (A) (A) (A) (A) (A) (A) (A) (A) (A) (A) (A)
                 (A) (A) (A) (A) (A) (A) (A) (A) (A) (A) (A) (A)
                 (A) (A) (A) (A) (A) (A) (A) (A) (A) (A) (A) (A)
                 (A) (A) (A) (A) (A) (A) (A) (A) (A) (A) (A) (A)
                 (A) (A) (A) (A) (A) (A) (A) (A) (A) (A) (A) (A)
                 (A) (A) (A) (A) (A) (A) (A) (A) (A) (A) (A) (A)
                 (A) (A) (A) (A) (A) (A) (A) (A) (A) (A) (A) (A)
                 (A) (A) (A) (A) (A) (A) (A) (A) (A) (A) (A) (A)
                 (A) (A) (A) (A) (A) (A) (A) (A) (A) (A) (A) (A)
                 (A) (A) (A) (A) (A) (A) (A) (A) (A) (A) (A) (A)
                 (A) (A) (A) (A) (A) (A) (A) (A) (A) (A) (A) (A)
                 (A) (A) (A) (A) (A) (A) (A) (A) (A) (A) (A) (A)
                 (A) (A) (A) (A) (A) (A) (A) (A) (A) (A) (A) (A)
                 (A) (A) (A) (A) (A) (A) (A) (A) (A) (A) (A) (A)
                 (A) (A) (A) (A) (A) (A) (A) (A) (A) (A) (A) (A)
                 (A) (A) (A) (A) (A) (A) (A) (A) (A) (A) (A) (A)
                 (A) (A) (A) (A) (A) (A) (A) (A) (A) (A) (A) (A)
                 (A) (A) (A) (A) (A) (A) (A) (A) (A) (A) (A) (A)
                 (A) (A) (A) (A) (A) (A) (A) (A) (A) (A) (A) (A)
                 (A) (A) (A) (A) (A) (A) (A) (A) (A) (A) (A) (A)
                 (A) (A) (A) (A) (A) (A) (A) (A) (A) (A) (A) (A)
                 (A) (A) (A) (A) (A) (A) (A) (A)
 The electronic state is 1-A.
 Alpha  occ. eigenvalues --  -66.08671 -19.05824 -19.04876 -19.01218 -19.00408
 Alpha  occ. eigenvalues --  -18.95929 -10.17680 -10.17216  -5.20283  -3.55023
 Alpha  occ. eigenvalues --   -3.54681  -3.54611  -0.96615  -0.90463  -0.89935
 Alpha  occ. eigenvalues --   -0.84474  -0.81711  -0.66800  -0.54587  -0.44690
 Alpha  occ. eigenvalues --   -0.42724  -0.41199  -0.38570  -0.36197  -0.35383
 Alpha  occ. eigenvalues --   -0.32897  -0.32257  -0.25555  -0.24027  -0.23422
 Alpha  occ. eigenvalues --   -0.23113  -0.21129  -0.20578  -0.18809  -0.16395
 Alpha  occ. eigenvalues --   -0.14278  -0.10760
 Alpha virt. eigenvalues --    0.21593   0.25810   0.28637   0.29917   0.31526
 Alpha virt. eigenvalues --    0.32921   0.33040   0.34058   0.35584   0.37168
 Alpha virt. eigenvalues --    0.38252   0.40288   0.41260   0.42761   0.45475
 Alpha virt. eigenvalues --    0.50668   0.53982   0.54809   0.56174   0.56703
 Alpha virt. eigenvalues --    0.58733   0.59159   0.60592   0.61330   0.62742
 Alpha virt. eigenvalues --    0.63791   0.64850   0.65336   0.66026   0.67300
 Alpha virt. eigenvalues --    0.68677   0.69677   0.70751   0.71254   0.72475
 Alpha virt. eigenvalues --    0.75418   0.76177   0.77645   0.78403   0.79648
 Alpha virt. eigenvalues --    0.81162   0.83333   0.83994   0.86113   0.87473
 Alpha virt. eigenvalues --    0.88038   0.90707   0.92433   0.93768   0.95096
 Alpha virt. eigenvalues --    0.95431   0.96456   0.98249   0.99604   1.01965
 Alpha virt. eigenvalues --    1.05206   1.07339   1.08147   1.09293   1.10165
 Alpha virt. eigenvalues --    1.12376   1.14949   1.17467   1.20338   1.22019
 Alpha virt. eigenvalues --    1.23756   1.24491   1.25193   1.26956   1.28901
 Alpha virt. eigenvalues --    1.30746   1.31551   1.33603   1.35648   1.36649
 Alpha virt. eigenvalues --    1.38192   1.39310   1.40260   1.42843   1.44170
 Alpha virt. eigenvalues --    1.45853   1.46499   1.47994   1.50671   1.52079
 Alpha virt. eigenvalues --    1.54191   1.55893   1.56993   1.58662   1.59597
 Alpha virt. eigenvalues --    1.60381   1.62904   1.66014   1.67557   1.71366
 Alpha virt. eigenvalues --    1.73282   1.75944   1.77253   1.79258   1.81839
 Alpha virt. eigenvalues --    1.82987   1.86127   1.89268   1.96086   2.04343
 Alpha virt. eigenvalues --    2.07570   2.10642   2.11610   2.13376   2.16494
 Alpha virt. eigenvalues --    2.16761   2.18334   2.20524   2.23600   2.25729
 Alpha virt. eigenvalues --    2.26022   2.27545   2.30202   2.32371   2.34783
 Alpha virt. eigenvalues --    2.37629   2.40719   2.41285   2.42562   2.45479
 Alpha virt. eigenvalues --    2.48099   2.50484   2.53827   2.55193   2.56139
 Alpha virt. eigenvalues --    2.57546   2.60878   2.62258   2.65211   2.68816
 Alpha virt. eigenvalues --    2.74222   2.79263   2.80421   2.83503   2.85682
 Alpha virt. eigenvalues --    2.88154   2.89128   2.94098   3.01396   3.02706
 Alpha virt. eigenvalues --    3.05883   3.07180   3.09629   3.11253   3.15013
 Alpha virt. eigenvalues --    3.16919   3.17291   3.20099   3.23147   3.25899
 Alpha virt. eigenvalues --    3.27743   3.29397   3.31049   3.31979   3.34893
 Alpha virt. eigenvalues --    3.36227   3.39598   3.40814   3.42766   3.44034
 Alpha virt. eigenvalues --    3.48449   3.51854   3.53893   3.54355   3.58115
 Alpha virt. eigenvalues --    3.58602   3.60364   3.65173   3.66712   3.67624
 Alpha virt. eigenvalues --    3.68802   3.69954   3.72837   3.74708   3.77167
 Alpha virt. eigenvalues --    3.78675   3.80974   3.83208   3.84132   3.88415
 Alpha virt. eigenvalues --    3.90058   3.92407   3.95776   3.96315   4.00042
 Alpha virt. eigenvalues --    4.01836   4.04834   4.06151   4.07422   4.11096
 Alpha virt. eigenvalues --    4.14900   4.16505   4.19809   4.21692   4.24146
 Alpha virt. eigenvalues --    4.25167   4.26901   4.29301   4.33856   4.34736
 Alpha virt. eigenvalues --    4.35872   4.38129   4.38204   4.40251   4.42199
 Alpha virt. eigenvalues --    4.44401   4.45637   4.48043   4.49583   4.53591
 Alpha virt. eigenvalues --    4.55598   4.56780   4.58958   4.60413   4.62546
 Alpha virt. eigenvalues --    4.64558   4.74061   4.74582   4.80138   4.83340
 Alpha virt. eigenvalues --    4.87318   4.92680   4.95497   4.97581   5.01250
 Alpha virt. eigenvalues --    5.02183   5.06803   5.09979   5.11887   5.18336
 Alpha virt. eigenvalues --    5.18969   5.23662   5.25398   5.27764   5.28946
 Alpha virt. eigenvalues --    5.36387   5.37171   5.41125   5.42203   5.48223
 Alpha virt. eigenvalues --    5.50596   5.54641   5.55627   5.56796   5.57508
 Alpha virt. eigenvalues --    5.63933   5.65797   5.68656   5.68924   5.70393
 Alpha virt. eigenvalues --    5.73109   5.74857   5.78381   5.79479   5.82481
 Alpha virt. eigenvalues --    5.85276   5.87187   5.89153   5.91376   5.95951
 Alpha virt. eigenvalues --    5.99053   6.02052   6.14411   6.17119   6.23025
 Alpha virt. eigenvalues --    6.31285   6.35531   6.37614   6.41812   6.59242
 Alpha virt. eigenvalues --    6.72974   6.78828   6.82281   6.83899   6.86604
 Alpha virt. eigenvalues --    6.87896   6.89768   6.90587   6.92411   6.94464
 Alpha virt. eigenvalues --    6.95677   6.98309   7.01375   7.03021   7.04156
 Alpha virt. eigenvalues --    7.06275   7.08932   7.12151   7.12472   7.14889
 Alpha virt. eigenvalues --    7.22775   7.25297   7.25753   7.33387   7.37445
 Alpha virt. eigenvalues --    7.44541   7.46258   7.50122   7.54901   7.58623
 Alpha virt. eigenvalues --    7.62387   7.68390   7.71013   7.83844   7.87386
 Alpha virt. eigenvalues --    7.93115   8.01263  12.51776  23.50581  23.61346
 Alpha virt. eigenvalues --   44.15903  44.24657  44.37368  44.52230  44.57031
          Condensed to atoms (all electrons):
               1          2          3          4          5          6
     1  Si  11.580344   0.426259  -0.047245   0.448552  -0.065099   0.340804
     2  O    0.426259   8.128166   0.322828  -0.134494   0.010028  -0.102167
     3  H   -0.047245   0.322828   0.535509   0.009896   0.000250   0.007342
     4  O    0.448552  -0.134494   0.009896   8.027255   0.336002   0.006183
     5  H   -0.065099   0.010028   0.000250   0.336002   0.525353   0.000639
     6  O    0.340804  -0.102167   0.007342   0.006183   0.000639   8.102679
     7  O    0.383644  -0.136236  -0.002173  -0.111764   0.010662  -0.047988
     8  H   -0.052580   0.011543  -0.000388  -0.003285   0.000458   0.002730
     9  O    0.370999   0.003032  -0.000118  -0.065260   0.003897  -0.051259
    10  C   -0.049923  -0.003072  -0.000271   0.005212   0.000040  -0.078642
    11  H    0.005308   0.000059   0.000003  -0.000062   0.000039   0.005875
    12  H   -0.010415  -0.000181  -0.000124   0.000440  -0.000052   0.011238
    13  C   -0.079304   0.001788   0.001172  -0.003746  -0.000118   0.318891
    14  H   -0.003857  -0.000531  -0.000121   0.000150  -0.000022  -0.036314
    15  H    0.024590   0.000925  -0.000502   0.000240   0.000013  -0.050992
               7          8          9         10         11         12
     1  Si   0.383644  -0.052580   0.370999  -0.049923   0.005308  -0.010415
     2  O   -0.136236   0.011543   0.003032  -0.003072   0.000059  -0.000181
     3  H   -0.002173  -0.000388  -0.000118  -0.000271   0.000003  -0.000124
     4  O   -0.111764  -0.003285  -0.065260   0.005212  -0.000062   0.000440
     5  H    0.010662   0.000458   0.003897   0.000040   0.000039  -0.000052
     6  O   -0.047988   0.002730  -0.051259  -0.078642   0.005875   0.011238
     7  O    8.168168   0.322270  -0.078275   0.013120  -0.002104  -0.001108
     8  H    0.322270   0.575788   0.001345   0.001137  -0.000259   0.000201
     9  O   -0.078275   0.001345   8.065971   0.320849  -0.036292  -0.059605
    10  C    0.013120   0.001137   0.320849   4.755506   0.355038   0.418834
    11  H   -0.002104  -0.000259  -0.036292   0.355038   0.741286  -0.069563
    12  H   -0.001108   0.000201  -0.059605   0.418834  -0.069563   0.762761
    13  C   -0.006672  -0.002998  -0.078444   0.285895  -0.013639  -0.073994
    14  H   -0.000192  -0.000031   0.005944  -0.007295   0.008368  -0.013718
    15  H    0.019632   0.000781   0.003143  -0.038002  -0.015298   0.016199
              13         14         15
     1  Si  -0.079304  -0.003857   0.024590
     2  O    0.001788  -0.000531   0.000925
     3  H    0.001172  -0.000121  -0.000502
     4  O   -0.003746   0.000150   0.000240
     5  H   -0.000118  -0.000022   0.000013
     6  O    0.318891  -0.036314  -0.050992
     7  O   -0.006672  -0.000192   0.019632
     8  H   -0.002998  -0.000031   0.000781
     9  O   -0.078444   0.005944   0.003143
    10  C    0.285895  -0.007295  -0.038002
    11  H   -0.013639   0.008368  -0.015298
    12  H   -0.073994  -0.013718   0.016199
    13  C    4.860397   0.348379   0.365527
    14  H    0.348379   0.745640  -0.068086
    15  H    0.365527  -0.068086   0.716148
 Mulliken charges:
               1
     1  Si   0.727923
     2  O   -0.527948
     3  H    0.173942
     4  O   -0.515319
     5  H    0.177911
     6  O   -0.429021
     7  O   -0.530984
     8  H    0.143289
     9  O   -0.405926
    10  C    0.021573
    11  H    0.021240
    12  H    0.019087
    13  C    0.076865
    14  H    0.021687
    15  H    0.025681
 Sum of Mulliken charges =  -1.00000
 Mulliken charges with hydrogens summed into heavy atoms:
               1
     1  Si   0.727923
     2  O   -0.354007
     4  O   -0.337408
     6  O   -0.429021
     7  O   -0.387695
     9  O   -0.405926
    10  C    0.061899
    13  C    0.124233
 Electronic spatial extent (au):  <R**2>=            945.1685
 Charge=             -1.0000 electrons
 Dipole moment (field-independent basis, Debye):
    X=              3.7170    Y=              0.2804    Z=             -0.7073  Tot=              3.7941
 Quadrupole moment (field-independent basis, Debye-Ang):
   XX=            -62.1219   YY=            -65.2011   ZZ=            -59.6305
   XY=             -0.2969   XZ=             -1.0397   YZ=              0.0134
 Traceless Quadrupole moment (field-independent basis, Debye-Ang):
   XX=              0.1959   YY=             -2.8833   ZZ=              2.6874
   XY=             -0.2969   XZ=             -1.0397   YZ=              0.0134
 Octapole moment (field-independent basis, Debye-Ang**2):
  XXX=             -6.2571  YYY=              9.1113  ZZZ=             -5.9130  XYY=             -0.5754
  XXY=             -2.0199  XXZ=              7.0769  XZZ=              1.1121  YZZ=             -4.4776
  YYZ=             11.9795  XYZ=              0.8933
 Hexadecapole moment (field-independent basis, Debye-Ang**3):
 XXXX=           -722.5260 YYYY=           -338.0196 ZZZZ=           -185.1567 XXXY=              9.7965
 XXXZ=             -6.8906 YYYX=            -13.5551 YYYZ=              1.4461 ZZZX=              1.5664
 ZZZY=             -8.0278 XXYY=           -193.2968 XXZZ=           -158.5001 YYZZ=            -83.4191
 XXYZ=             -1.2872 YYXZ=            -12.3072 ZZXY=              2.7443
 N-N= 5.627452938391D+02 E-N=-2.908882411025D+03  KE= 7.444518943728D+02
   1 Symmetry operations used in ECPInt.
 ECPInt:  NShTT=    8911 NPrTT=   25186 LenC2=    8706 LenP2D=   19819.
 LDataN:  DoStor=T MaxTD1= 7 Len=  274
 Calling FoFJK, ICntrl=      2127 FMM=F ISym2X=0 I1Cent= 0 IOpClX= 0 NMat=1 NMatS=1 NMatT=0.
 ***** Axes restored to original set *****
 -------------------------------------------------------------------
 Center     Atomic                   Forces (Hartrees/Bohr)
 Number     Number              X              Y              Z
 -------------------------------------------------------------------
      1       14           0.040118657    0.054497694   -0.104081074
      2        8           0.069804771   -0.004500312    0.053855062
      3        1          -0.005953976   -0.016481600    0.004060932
      4        8          -0.017768449   -0.091203257    0.008308804
      5        1          -0.017827419    0.006084488    0.009261980
      6        8          -0.031596828    0.010726806    0.039234058
      7        8          -0.013089212    0.066193538   -0.065495855
      8        1           0.009477126    0.011688546    0.012884286
      9        8          -0.050387590   -0.019049154    0.050258199
     10        6           0.003449283   -0.011718207   -0.021622185
     11        1          -0.001065257   -0.000323848   -0.000827145
     12        1          -0.002109102    0.004128657    0.005394158
     13        6           0.018474404   -0.007943108    0.008091861
     14        1           0.000277699    0.000849180    0.002311175
     15        1          -0.001804106   -0.002949424   -0.001634256
 -------------------------------------------------------------------
 Cartesian Forces:  Max     0.104081074 RMS     0.033713844

 GradGradGradGradGradGradGradGradGradGradGradGradGradGradGradGradGradGrad
 Berny optimization.
 FormGI is forming the generalized inverse of G from B-inverse, IUseBI=4.
 Internal  Forces:  Max     0.086430195 RMS     0.025389001
 Search for a local minimum.
 Step number   1 out of a maximum of   85
 All quantities printed in internal units (Hartrees-Bohrs-Radians)
 Mixed Optimization -- RFO/linear search
 Second derivative matrix not updated -- first step.
 ITU=  0
     Eigenvalues ---    0.01122   0.02583   0.03257   0.03371   0.03466
     Eigenvalues ---    0.05036   0.05137   0.05858   0.06264   0.06729
     Eigenvalues ---    0.07275   0.10177   0.11085   0.11164   0.11897
     Eigenvalues ---    0.12017   0.14037   0.15213   0.16000   0.16000
     Eigenvalues ---    0.16000   0.16282   0.20751   0.21719   0.29464
     Eigenvalues ---    0.33991   0.34012   0.34375   0.34400   0.35659
     Eigenvalues ---    0.36292   0.38170   0.39319   0.40103   0.40317
     Eigenvalues ---    0.40763   0.53587   0.53597   0.53704
 RFO step:  Lambda=-1.55050100D-01 EMin= 1.12215122D-02
 Linear search not attempted -- first point.
 Maximum step size (   0.300) exceeded in Quadratic search.
    -- Step size scaled by   0.501
 Iteration  1 RMS(Cart)=  0.07477822 RMS(Int)=  0.00393803
 Iteration  2 RMS(Cart)=  0.00428820 RMS(Int)=  0.00226433
 Iteration  3 RMS(Cart)=  0.00001631 RMS(Int)=  0.00226431
 Iteration  4 RMS(Cart)=  0.00000005 RMS(Int)=  0.00226431
 Variable       Old X    -DE/DX   Delta X   Delta X   Delta X     New X
                                 (Linear)    (Quad)   (Total)
    R1        3.16189   0.06385   0.00000   0.05840   0.05840   3.22029
    R2        3.14824   0.05021   0.00000   0.04510   0.04510   3.19334
    R3        3.18248   0.02805   0.00000   0.02803   0.02957   3.21206
    R4        3.17818   0.08643   0.00000   0.08074   0.08074   3.25892
    R5        3.18384   0.03374   0.00000   0.03472   0.03634   3.22018
    R6        1.83110  -0.01751   0.00000  -0.01271  -0.01271   1.81839
    R7        1.83101  -0.01990   0.00000  -0.01444  -0.01444   1.81657
    R8        2.69686  -0.01304   0.00000  -0.01338  -0.01436   2.68251
    R9        1.83002  -0.01923   0.00000  -0.01393  -0.01393   1.81609
   R10        2.69184  -0.01596   0.00000  -0.01427  -0.01514   2.67670
   R11        2.06660   0.00105   0.00000   0.00105   0.00105   2.06765
   R12        2.07310   0.00223   0.00000   0.00226   0.00226   2.07536
   R13        2.85584   0.00656   0.00000   0.00364   0.00182   2.85765
   R14        2.06702   0.00237   0.00000   0.00238   0.00238   2.06941
   R15        2.07345  -0.00107   0.00000  -0.00108  -0.00108   2.07237
    A1        1.46520   0.03594   0.00000   0.05921   0.05713   1.52232
    A2        1.55375  -0.00066   0.00000   0.00241  -0.00322   1.55053
    A3        1.45076   0.04888   0.00000   0.09402   0.09223   1.54299
    A4        1.46924   0.06950   0.00000   0.12710   0.12588   1.59513
    A5        1.64166  -0.01267   0.00000  -0.02260  -0.02972   1.61194
    A6        1.68417  -0.00390   0.00000   0.01247   0.01173   1.69590
    A7        1.62524  -0.01301   0.00000  -0.01837  -0.02314   1.60210
    A8        1.51923   0.01976   0.00000   0.05393   0.05428   1.57352
    A9        1.88579  -0.00102   0.00000  -0.00162  -0.00162   1.88417
   A10        1.88847  -0.01196   0.00000  -0.01903  -0.01903   1.86943
   A11        1.93384   0.00226   0.00000   0.00487   0.00769   1.94154
   A12        1.87464   0.00562   0.00000   0.00894   0.00894   1.88358
   A13        1.92565   0.00470   0.00000   0.01237   0.01510   1.94075
   A14        1.92299  -0.00433   0.00000  -0.00283  -0.00199   1.92100
   A15        1.89811   0.00317   0.00000   0.00583   0.00592   1.90403
   A16        1.82921   0.00683   0.00000   0.00727   0.00576   1.83497
   A17        1.89867   0.00047   0.00000  -0.00097  -0.00110   1.89757
   A18        1.95967   0.00611   0.00000   0.01056   0.01028   1.96994
   A19        1.95365  -0.01218   0.00000  -0.01958  -0.01863   1.93502
   A20        1.83192   0.00192   0.00000  -0.00131  -0.00238   1.82953
   A21        1.92534  -0.00055   0.00000   0.00087   0.00160   1.92694
   A22        1.89848   0.00010   0.00000   0.00124   0.00118   1.89967
   A23        1.95716  -0.00497   0.00000  -0.00777  -0.00767   1.94949
   A24        1.95329   0.00191   0.00000   0.00418   0.00456   1.95785
   A25        1.89643   0.00165   0.00000   0.00286   0.00276   1.89919
   A26        3.10686   0.02328   0.00000   0.03661   0.02741   3.13426
   A27        3.01895   0.03528   0.00000   0.06162   0.05391   3.07286
   A28        3.31127  -0.06610   0.00000  -0.14401  -0.14437   3.16690
   A29        3.16786   0.05626   0.00000   0.12233   0.12520   3.29306
    D1        2.44873   0.04166   0.00000   0.08471   0.08658   2.53531
    D2       -0.71913  -0.01460   0.00000  -0.03762  -0.03862  -0.75775
    D3        0.96796  -0.01998   0.00000  -0.02830  -0.02916   0.93880
    D4       -0.11283  -0.03440   0.00000  -0.07174  -0.07319  -0.18602
    D5        1.34750   0.00506   0.00000   0.00570   0.00824   1.35574
    D6        2.85909   0.03169   0.00000   0.07227   0.07117   2.93026
    D7        2.78189   0.04761   0.00000   0.10050   0.09861   2.88050
    D8        1.33389  -0.00166   0.00000   0.00594   0.00640   1.34029
    D9       -0.19115  -0.01993   0.00000  -0.04697  -0.04604  -0.23719
   D10        2.28584   0.00752   0.00000   0.01082   0.01631   2.30216
   D11        0.80961  -0.01663   0.00000  -0.02634  -0.02907   0.78055
   D12       -2.45756   0.01309   0.00000   0.02277   0.02340  -2.43416
   D13       -0.83778   0.00236   0.00000   0.00971   0.00631  -0.83147
   D14        2.87271  -0.05003   0.00000  -0.10259  -0.09967   2.77303
   D15       -0.26365   0.01970   0.00000   0.04652   0.04480  -0.21885
   D16       -1.94531   0.02204   0.00000   0.03054   0.03042  -1.91490
   D17        0.55440   0.01192   0.00000   0.03146   0.03176   0.58616
   D18        2.66601   0.00684   0.00000   0.02188   0.02207   2.68808
   D19       -1.53871   0.00859   0.00000   0.02665   0.02713  -1.51158
   D20        2.71874  -0.00639   0.00000  -0.01900  -0.01837   2.70037
   D21       -1.48488  -0.00645   0.00000  -0.01832  -0.01729  -1.50217
   D22        0.60699  -0.01538   0.00000  -0.03434  -0.03298   0.57402
   D23       -0.72275  -0.00114   0.00000   0.00139   0.00210  -0.72064
   D24       -2.81329   0.00102   0.00000   0.00535   0.00575  -2.80753
   D25        1.33349   0.00110   0.00000   0.00424   0.00444   1.33793
   D26       -2.81011  -0.00344   0.00000  -0.00538  -0.00474  -2.81485
   D27        1.38254  -0.00128   0.00000  -0.00141  -0.00109   1.38145
   D28       -0.75387  -0.00120   0.00000  -0.00252  -0.00240  -0.75627
   D29        1.33163   0.00049   0.00000   0.00267   0.00303   1.33466
   D30       -0.75891   0.00265   0.00000   0.00663   0.00668  -0.75223
   D31       -2.89532   0.00273   0.00000   0.00552   0.00537  -2.88995
         Item               Value     Threshold  Converged?
 Maximum Force            0.086430     0.000450     NO 
 RMS     Force            0.025389     0.000300     NO 
 Maximum Displacement     0.232598     0.001800     NO 
 RMS     Displacement     0.074124     0.001200     NO 
 Predicted change in Energy=-6.880037D-02
 GradGradGradGradGradGradGradGradGradGradGradGradGradGradGradGradGradGrad

                          Input orientation:                          
 ---------------------------------------------------------------------
 Center     Atomic      Atomic             Coordinates (Angstroms)
 Number     Number       Type             X           Y           Z
 ---------------------------------------------------------------------
      1         14           0        0.025331    0.054195   -0.075278
      2          8           0        1.723432   -0.009414    0.052681
      3          1           0        2.054066    0.894172    0.064556
      4          8           0        0.125575   -1.348442   -1.012365
      5          1           0        1.054644   -1.485820   -1.217373
      6          8           0        0.019771    1.302923    1.077886
      7          8           0        0.215875    1.050248   -1.470140
      8          1           0       -0.349405    0.699286   -2.163589
      9          8           0       -1.668404    0.131470   -0.245732
     10          6           0       -2.251702    0.910520    0.783426
     11          1           0       -3.207189    1.323319    0.446062
     12          1           0       -2.432814    0.272083    1.658477
     13          6           0       -1.228498    1.978533    1.098339
     14          1           0       -1.402800    2.428972    2.081156
     15          1           0       -1.213582    2.773154    0.342695
 ---------------------------------------------------------------------
                    Distance matrix (angstroms):
                    1          2          3          4          5
     1  Si   0.000000
     2  O    1.704103   0.000000
     3  H    2.200199   0.962251   0.000000
     4  O    1.689844   2.341040   3.147722   0.000000
     5  H    2.176122   2.059147   2.882108   0.961286   0.000000
     6  O    1.699747   2.382380   2.309171   3.377881   3.757161
     7  O    1.724549   2.390522   2.399707   2.443650   2.683107
     8  H    2.217568   3.116209   3.283181   2.396687   2.764301
     9  O    1.704044   3.407852   3.812450   2.448719   3.312808
    10  C    2.579834   4.145113   4.365395   3.738879   4.547258
    11  H    3.511646   5.122690   5.292496   4.513605   5.368565
    12  H    3.015934   4.464550   4.802048   4.037926   4.850061
    13  C    2.579252   3.709343   3.608292   4.166215   4.751525
    14  H    3.511315   4.453511   4.286281   5.116117   5.678460
    15  H    3.017010   4.056211   3.779611   4.540604   5.071244
                    6          7          8          9         10
     6  O    0.000000
     7  O    2.568022   0.000000
     8  H    3.317804   0.961034   0.000000
     9  O    2.444218   2.427722   2.395902   0.000000
    10  C    2.323849   3.344700   3.514007   1.416447   0.000000
    11  H    3.288295   3.932399   3.920028   2.065658   1.094154
    12  H    2.723029   4.172450   4.373932   2.056722   1.098234
    13  C    1.419522   3.089500   3.612402   2.326303   1.512206
    14  H    2.073221   4.139165   4.703117   3.280772   2.170353
    15  H    2.055053   2.880647   3.365887   2.744377   2.177462
                   11         12         13         14         15
    11  H    0.000000
    12  H    1.781770   0.000000
    13  C    2.184030   2.162429   0.000000
    14  H    2.674288   2.427294   1.095083   0.000000
    15  H    2.467220   3.077850   1.096651   1.782277   0.000000
 Stoichiometry    C2H7O5Si(1-)
 Framework group  C1[X(C2H7O5Si)]
 Deg. of freedom    39
 Full point group                 C1      NOp   1
 Largest Abelian subgroup         C1      NOp   1
 Largest concise Abelian subgroup C1      NOp   1
                         Standard orientation:                         
 ---------------------------------------------------------------------
 Center     Atomic      Atomic             Coordinates (Angstroms)
 Number     Number       Type             X           Y           Z
 ---------------------------------------------------------------------
      1         14           0       -0.480153   -0.028960   -0.233281
      2          8           0       -1.688997    1.157432   -0.420731
      3          1           0       -1.464816    1.901576    0.146648
      4          8           0       -1.697792   -1.183561   -0.432842
      5          1           0       -2.538035   -0.718318   -0.392706
      6          8           0        0.689935    1.202096   -0.300619
      7          8           0       -0.755242    0.028462    1.468218
      8          1           0       -0.841875   -0.874919    1.784421
      9          8           0        0.712880   -1.224042   -0.004768
     10          6           0        2.007445   -0.711858   -0.265709
     11          1           0        2.756985   -1.287069    0.286101
     12          1           0        2.217921   -0.797781   -1.340156
     13          6           0        1.950944    0.738722    0.157837
     14          1           0        2.759563    1.323830   -0.292707
     15          1           0        1.995790    0.853830    1.247508
 ---------------------------------------------------------------------
 Rotational constants (GHZ):           3.0692627           1.6738295           1.3886947
 Standard basis: def2TZVPP (5D, 7F)
 There are   405 symmetry adapted cartesian basis functions of A   symmetry.
 There are   357 symmetry adapted basis functions of A   symmetry.
   357 basis functions,   545 primitive gaussians,   405 cartesian basis functions
    37 alpha electrons       37 beta electrons
       nuclear repulsion energy       554.0052707092 Hartrees.
 NAtoms=   15 NActive=   15 NUniq=   15 SFac= 1.00D+00 NAtFMM=   60 NAOKFM=F Big=F
 Integral buffers will be    131072 words long.
 Raffenetti 2 integral format.
 Two-electron integral symmetry is turned on.
 Nuclear repulsion after empirical dispersion term =      553.9988341460 Hartrees.
 One-electron integrals computed using PRISM.
   1 Symmetry operations used in ECPInt.
 ECPInt:  NShTT=    8911 NPrTT=   25186 LenC2=    8689 LenP2D=   19729.
 LDataN:  DoStor=T MaxTD1= 6 Len=  172
 NBasis=   357 RedAO= T EigKep=  3.05D-04  NBF=   357
 NBsUse=   357 1.00D-06 EigRej= -1.00D+00 NBFU=   357
 Initial guess from the checkpoint file:  "PL1BidentConfSearch_6.chk"
 B after Tr=     0.000000    0.000000    0.000000
         Rot=    0.999905    0.013197   -0.001536   -0.003718 Ang=   1.58 deg.
 ExpMin= 7.01D-02 ExpMax= 4.48D+04 ExpMxC= 1.53D+03 IAcc=3 IRadAn=         5 AccDes= 0.00D+00
 Harris functional with IExCor= 4639 and IRadAn=       5 diagonalized for initial guess.
 HarFok:  IExCor= 4639 AccDes= 0.00D+00 IRadAn=         5 IDoV= 1 UseB2=F ITyADJ=14
 ICtDFT=  3500011 ScaDFX=  1.000000  1.000000  1.000000  1.000000
 FoFCou: FMM=F IPFlag=           0 FMFlag=      100000 FMFlg1=           0
         NFxFlg=           0 DoJE=T BraDBF=F KetDBF=T FulRan=T
         wScrn=  0.000000 ICntrl=       500 IOpCl=  0 I1Cent=   200000004 NGrid=           0
         NMat0=    1 NMatS0=      1 NMatT0=    0 NMatD0=    1 NMtDS0=    0 NMtDT0=    0
 Petite list used in FoFCou.
 Requested convergence on RMS density matrix=1.00D-08 within 128 cycles.
 Requested convergence on MAX density matrix=1.00D-06.
 Requested convergence on             energy=1.00D-06.
 No special actions if energy rises.
 Integral accuracy reduced to 1.0D-05 until final iterations.
 Initial convergence to 1.0D-05 achieved.  Increase integral accuracy.
 SCF Done:  E(RwB97XD) =  -746.298042393     A.U. after   13 cycles
            NFock= 13  Conv=0.62D-08     -V/T= 2.0029
   1 Symmetry operations used in ECPInt.
 ECPInt:  NShTT=    8911 NPrTT=   25186 LenC2=    8689 LenP2D=   19729.
 LDataN:  DoStor=T MaxTD1= 7 Len=  274
 Calling FoFJK, ICntrl=      2127 FMM=F ISym2X=0 I1Cent= 0 IOpClX= 0 NMat=1 NMatS=1 NMatT=0.
 ***** Axes restored to original set *****
 -------------------------------------------------------------------
 Center     Atomic                   Forces (Hartrees/Bohr)
 Number     Number              X              Y              Z
 -------------------------------------------------------------------
      1       14           0.035753088    0.046693110   -0.095817819
      2        8           0.029608127   -0.008232348    0.029763391
      3        1          -0.004883558   -0.009142183    0.003340076
      4        8          -0.012914323   -0.042145318    0.016171946
      5        1          -0.007844240    0.004557139    0.005458499
      6        8          -0.023829003    0.005226522    0.027874583
      7        8          -0.004363902    0.025524393   -0.024856035
      8        1           0.004371420    0.005138035    0.007802166
      9        8          -0.030077990   -0.013943736    0.038219762
     10        6           0.003332988   -0.010173897   -0.018790459
     11        1          -0.000791033    0.000499580   -0.000267733
     12        1          -0.002330637    0.003135352    0.004198539
     13        6           0.015824940   -0.006426883    0.007072398
     14        1           0.000815424    0.001049194    0.001503976
     15        1          -0.002671301   -0.001758960   -0.001673290
 -------------------------------------------------------------------
 Cartesian Forces:  Max     0.095817819 RMS     0.022653014

 GradGradGradGradGradGradGradGradGradGradGradGradGradGradGradGradGradGrad
 Berny optimization.
 Using GEDIIS/GDIIS optimizer.
 FormGI is forming the generalized inverse of G from B-inverse, IUseBI=4.
 Internal  Forces:  Max     0.043206721 RMS     0.013891976
 Search for a local minimum.
 Step number   2 out of a maximum of   85
 All quantities printed in internal units (Hartrees-Bohrs-Radians)
 Mixed Optimization -- RFO/linear search
 Update second derivatives using D2CorX and points    1    2
 DE= -5.99D-02 DEPred=-6.88D-02 R= 8.70D-01
 TightC=F SS=  1.41D+00  RLast= 3.74D-01 DXNew= 5.0454D-01 1.1214D+00
 Trust test= 8.70D-01 RLast= 3.74D-01 DXMaxT set to 5.05D-01
 ITU=  1  0
 Use linear search instead of GDIIS.
 Linear search step of   0.598 exceeds DXMaxT=   0.505 but not scaled.
 Quartic linear search produced a step of  2.00000.
 Iteration  1 RMS(Cart)=  0.13268413 RMS(Int)=  0.01887672
 Iteration  2 RMS(Cart)=  0.01975142 RMS(Int)=  0.01339393
 Iteration  3 RMS(Cart)=  0.00084933 RMS(Int)=  0.01338320
 Iteration  4 RMS(Cart)=  0.00002977 RMS(Int)=  0.01338319
 Iteration  5 RMS(Cart)=  0.00000111 RMS(Int)=  0.01338319
 Iteration  6 RMS(Cart)=  0.00000004 RMS(Int)=  0.01338319
 Variable       Old X    -DE/DX   Delta X   Delta X   Delta X     New X
                                 (Linear)    (Quad)   (Total)
    R1        3.22029   0.02777   0.11680   0.00000   0.11680   3.33708
    R2        3.19334   0.01797   0.09020   0.00000   0.09020   3.28354
    R3        3.21206   0.01914   0.05915   0.00000   0.06757   3.27962
    R4        3.25892   0.03150   0.16148   0.00000   0.16148   3.42040
    R5        3.22018   0.02096   0.07267   0.00000   0.08153   3.30171
    R6        1.81839  -0.01022  -0.02542   0.00000  -0.02542   1.79297
    R7        1.81657  -0.00940  -0.02888   0.00000  -0.02888   1.78769
    R8        2.68251  -0.01128  -0.02871   0.00000  -0.03432   2.64818
    R9        1.81609  -0.01008  -0.02786   0.00000  -0.02786   1.78823
   R10        2.67670  -0.01329  -0.03029   0.00000  -0.03506   2.64164
   R11        2.06765   0.00096   0.00211   0.00000   0.00211   2.06976
   R12        2.07536   0.00191   0.00452   0.00000   0.00452   2.07988
   R13        2.85765   0.00448   0.00363   0.00000  -0.00668   2.85098
   R14        2.06941   0.00165   0.00477   0.00000   0.00477   2.07418
   R15        2.07237  -0.00016  -0.00216   0.00000  -0.00216   2.07021
    A1        1.52232   0.01386   0.11425   0.00000   0.09807   1.62039
    A2        1.55053   0.00128  -0.00644   0.00000  -0.03685   1.51368
    A3        1.54299   0.02583   0.18446   0.00000   0.16489   1.70787
    A4        1.59513   0.03663   0.25177   0.00000   0.23611   1.83123
    A5        1.61194  -0.01041  -0.05944   0.00000  -0.09557   1.51637
    A6        1.69590   0.00369   0.02345   0.00000   0.02041   1.71631
    A7        1.60210  -0.01022  -0.04628   0.00000  -0.07067   1.53143
    A8        1.57352   0.01751   0.10857   0.00000   0.10831   1.68183
    A9        1.88417  -0.00215  -0.00324   0.00000  -0.00324   1.88093
   A10        1.86943  -0.00857  -0.03807   0.00000  -0.03807   1.83136
   A11        1.94154   0.00226   0.01539   0.00000   0.03079   1.97233
   A12        1.88358   0.00046   0.01788   0.00000   0.01788   1.90146
   A13        1.94075   0.00438   0.03020   0.00000   0.04490   1.98565
   A14        1.92100  -0.00208  -0.00397   0.00000   0.00128   1.92228
   A15        1.90403   0.00236   0.01183   0.00000   0.01235   1.91638
   A16        1.83497   0.00423   0.01152   0.00000   0.00220   1.83718
   A17        1.89757   0.00017  -0.00220   0.00000  -0.00306   1.89450
   A18        1.96994   0.00362   0.02055   0.00000   0.01833   1.98828
   A19        1.93502  -0.00820  -0.03726   0.00000  -0.03080   1.90423
   A20        1.82953   0.00053  -0.00477   0.00000  -0.01017   1.81937
   A21        1.92694  -0.00018   0.00320   0.00000   0.00703   1.93397
   A22        1.89967   0.00090   0.00237   0.00000   0.00189   1.90156
   A23        1.94949  -0.00248  -0.01534   0.00000  -0.01407   1.93542
   A24        1.95785   0.00026   0.00912   0.00000   0.01021   1.96806
   A25        1.89919   0.00101   0.00553   0.00000   0.00505   1.90425
   A26        3.13426   0.00346   0.05481   0.00000   0.00250   3.13676
   A27        3.07286   0.01515   0.10781   0.00000   0.06122   3.13407
   A28        3.16690  -0.04321  -0.28874   0.00000  -0.28124   2.88566
   A29        3.29306   0.03804   0.25040   0.00000   0.25810   3.55116
    D1        2.53531   0.02641   0.17316   0.00000   0.18012   2.71543
    D2       -0.75775  -0.01164  -0.07724   0.00000  -0.07798  -0.83573
    D3        0.93880  -0.00860  -0.05833   0.00000  -0.06455   0.87424
    D4       -0.18602  -0.02183  -0.14639   0.00000  -0.15109  -0.33711
    D5        1.35574   0.00259   0.01649   0.00000   0.03339   1.38913
    D6        2.93026   0.02138   0.14235   0.00000   0.13015   3.06041
    D7        2.88050   0.02893   0.19721   0.00000   0.17768   3.05818
    D8        1.34029   0.00282   0.01280   0.00000   0.01677   1.35706
    D9       -0.23719  -0.01367  -0.09208   0.00000  -0.08304  -0.32024
   D10        2.30216   0.00411   0.03263   0.00000   0.06389   2.36605
   D11        0.78055  -0.00937  -0.05813   0.00000  -0.07396   0.70658
   D12       -2.43416   0.00855   0.04680   0.00000   0.04978  -2.38437
   D13       -0.83147   0.00048   0.01262   0.00000  -0.00580  -0.83727
   D14        2.77303  -0.02836  -0.19935   0.00000  -0.17279   2.60024
   D15       -0.21885   0.01317   0.08960   0.00000   0.07579  -0.14305
   D16       -1.91490   0.00898   0.06083   0.00000   0.05895  -1.85595
   D17        0.58616   0.00816   0.06352   0.00000   0.06320   0.64936
   D18        2.68808   0.00542   0.04413   0.00000   0.04422   2.73230
   D19       -1.51158   0.00711   0.05426   0.00000   0.05589  -1.45568
   D20        2.70037  -0.00504  -0.03674   0.00000  -0.03225   2.66812
   D21       -1.50217  -0.00464  -0.03457   0.00000  -0.02759  -1.52976
   D22        0.57402  -0.01076  -0.06595   0.00000  -0.05632   0.51770
   D23       -0.72064  -0.00010   0.00421   0.00000   0.00818  -0.71246
   D24       -2.80753   0.00111   0.01150   0.00000   0.01313  -2.79441
   D25        1.33793   0.00143   0.00888   0.00000   0.00953   1.34746
   D26       -2.81485  -0.00229  -0.00948   0.00000  -0.00526  -2.82011
   D27        1.38145  -0.00108  -0.00218   0.00000  -0.00032   1.38113
   D28       -0.75627  -0.00076  -0.00481   0.00000  -0.00392  -0.76019
   D29        1.33466   0.00096   0.00606   0.00000   0.00857   1.34323
   D30       -0.75223   0.00217   0.01336   0.00000   0.01351  -0.73872
   D31       -2.88995   0.00249   0.01074   0.00000   0.00991  -2.88004
         Item               Value     Threshold  Converged?
 Maximum Force            0.043207     0.000450     NO 
 RMS     Force            0.013892     0.000300     NO 
 Maximum Displacement     0.438560     0.001800     NO 
 RMS     Displacement     0.142023     0.001200     NO 
 Predicted change in Energy=-2.475451D-02
 GradGradGradGradGradGradGradGradGradGradGradGradGradGradGradGradGradGrad

                          Input orientation:                          
 ---------------------------------------------------------------------
 Center     Atomic      Atomic             Coordinates (Angstroms)
 Number     Number       Type             X           Y           Z
 ---------------------------------------------------------------------
      1         14           0        0.079944    0.142991   -0.236149
      2          8           0        1.792990   -0.011022    0.164084
      3          1           0        2.160808    0.862691    0.203573
      4          8           0        0.004309   -1.457494   -0.908380
      5          1           0        0.903073   -1.686127   -1.095118
      6          8           0        0.001261    1.354560    1.003962
      7          8           0        0.257362    1.240520   -1.664453
      8          1           0       -0.303592    0.931361   -2.361027
      9          8           0       -1.667046    0.118396   -0.226721
     10          6           0       -2.235472    0.865468    0.809082
     11          1           0       -3.231629    1.215979    0.518518
     12          1           0       -2.333215    0.240219    1.709573
     13          6           0       -1.252132    1.976232    1.083557
     14          1           0       -1.412803    2.403430    2.081769
     15          1           0       -1.299557    2.777996    0.338530
 ---------------------------------------------------------------------
                    Distance matrix (angstroms):
                    1          2          3          4          5
     1  Si   0.000000
     2  O    1.765909   0.000000
     3  H    2.245288   0.948801   0.000000
     4  O    1.737575   2.538079   3.357110   0.000000
     5  H    2.181981   2.276735   3.124896   0.946003   0.000000
     6  O    1.735502   2.404267   2.355037   3.400692   3.803311
     7  O    1.810000   2.695934   2.693582   2.813354   3.050631
     8  H    2.298638   3.414664   3.557409   2.812760   3.147986
     9  O    1.747189   3.484441   3.923212   2.396146   3.258209
    10  C    2.641142   4.172861   4.437784   3.655468   4.470691
    11  H    3.561930   5.184396   5.413168   4.433372   5.302999
    12  H    3.101390   4.413301   4.780351   3.898708   4.695813
    13  C    2.622370   3.750650   3.696283   4.163764   4.775396
    14  H    3.565196   4.447944   4.321133   5.084873   5.672774
    15  H    3.029279   4.168081   3.957364   4.603718   5.180281
                    6          7          8          9         10
     6  O    0.000000
     7  O    2.683101   0.000000
     8  H    3.405170   0.946289   0.000000
     9  O    2.413697   2.651335   2.659922   0.000000
    10  C    2.297861   3.531751   3.712963   1.397896   0.000000
    11  H    3.272070   4.115705   4.116575   2.051338   1.095269
    12  H    2.681310   4.369868   4.600743   2.051306   1.100624
    13  C    1.401359   3.220467   3.722451   2.310960   1.508672
    14  H    2.064310   4.263331   4.809966   3.258089   2.159130
    15  H    2.039877   2.966441   3.419008   2.743725   2.180624
                   11         12         13         14         15
    11  H    0.000000
    12  H    1.782658   0.000000
    13  C    2.194462   2.138779   0.000000
    14  H    2.676177   2.380161   1.097607   0.000000
    15  H    2.491023   3.064069   1.095509   1.786619   0.000000
 Stoichiometry    C2H7O5Si(1-)
 Framework group  C1[X(C2H7O5Si)]
 Deg. of freedom    39
 Full point group                 C1      NOp   1
 Largest Abelian subgroup         C1      NOp   1
 Largest concise Abelian subgroup C1      NOp   1
                         Standard orientation:                         
 ---------------------------------------------------------------------
 Center     Atomic      Atomic             Coordinates (Angstroms)
 Number     Number       Type             X           Y           Z
 ---------------------------------------------------------------------
      1         14           0       -0.541175   -0.037427   -0.092325
      2          8           0       -1.703617    1.163064   -0.663274
      3          1           0       -1.524728    1.977505   -0.210607
      4          8           0       -1.584097   -1.366784   -0.497655
      5          1           0       -2.447499   -0.986597   -0.567771
      6          8           0        0.681115    1.165776   -0.357419
      7          8           0       -0.777181    0.215208    1.684351
      8          1           0       -0.831715   -0.628173    2.110025
      9          8           0        0.743937   -1.212751    0.048285
     10          6           0        2.005596   -0.710511   -0.283505
     11          1           0        2.784681   -1.265886    0.249597
     12          1           0        2.177014   -0.818099   -1.365362
     13          6           0        1.953190    0.756507    0.064637
     14          1           0        2.737381    1.312710   -0.464912
     15          1           0        2.047357    0.940440    1.140481
 ---------------------------------------------------------------------
 Rotational constants (GHZ):           2.6776069           1.5990970           1.3705667
 Standard basis: def2TZVPP (5D, 7F)
 There are   405 symmetry adapted cartesian basis functions of A   symmetry.
 There are   357 symmetry adapted basis functions of A   symmetry.
   357 basis functions,   545 primitive gaussians,   405 cartesian basis functions
    37 alpha electrons       37 beta electrons
       nuclear repulsion energy       540.0432807507 Hartrees.
 NAtoms=   15 NActive=   15 NUniq=   15 SFac= 1.00D+00 NAtFMM=   60 NAOKFM=F Big=F
 Integral buffers will be    131072 words long.
 Raffenetti 2 integral format.
 Two-electron integral symmetry is turned on.
 Nuclear repulsion after empirical dispersion term =      540.0368059438 Hartrees.
 One-electron integrals computed using PRISM.
   1 Symmetry operations used in ECPInt.
 ECPInt:  NShTT=    8911 NPrTT=   25186 LenC2=    8675 LenP2D=   19576.
 LDataN:  DoStor=T MaxTD1= 6 Len=  172
 NBasis=   357 RedAO= T EigKep=  3.09D-04  NBF=   357
 NBsUse=   357 1.00D-06 EigRej= -1.00D+00 NBFU=   357
 Initial guess from the checkpoint file:  "PL1BidentConfSearch_6.chk"
 B after Tr=    -0.000000    0.000000   -0.000000
         Rot=    0.999141    0.040406    0.002063   -0.008994 Ang=   4.75 deg.
 ExpMin= 7.01D-02 ExpMax= 4.48D+04 ExpMxC= 1.53D+03 IAcc=3 IRadAn=         5 AccDes= 0.00D+00
 Harris functional with IExCor= 4639 and IRadAn=       5 diagonalized for initial guess.
 HarFok:  IExCor= 4639 AccDes= 0.00D+00 IRadAn=         5 IDoV= 1 UseB2=F ITyADJ=14
 ICtDFT=  3500011 ScaDFX=  1.000000  1.000000  1.000000  1.000000
 FoFCou: FMM=F IPFlag=           0 FMFlag=      100000 FMFlg1=           0
         NFxFlg=           0 DoJE=T BraDBF=F KetDBF=T FulRan=T
         wScrn=  0.000000 ICntrl=       500 IOpCl=  0 I1Cent=   200000004 NGrid=           0
         NMat0=    1 NMatS0=      1 NMatT0=    0 NMatD0=    1 NMtDS0=    0 NMtDT0=    0
 Petite list used in FoFCou.
 Requested convergence on RMS density matrix=1.00D-08 within 128 cycles.
 Requested convergence on MAX density matrix=1.00D-06.
 Requested convergence on             energy=1.00D-06.
 No special actions if energy rises.
 Integral accuracy reduced to 1.0D-05 until final iterations.
 Initial convergence to 1.0D-05 achieved.  Increase integral accuracy.
 SCF Done:  E(RwB97XD) =  -746.336921312     A.U. after   13 cycles
            NFock= 13  Conv=0.41D-08     -V/T= 2.0035
   1 Symmetry operations used in ECPInt.
 ECPInt:  NShTT=    8911 NPrTT=   25186 LenC2=    8675 LenP2D=   19576.
 LDataN:  DoStor=T MaxTD1= 7 Len=  274
 Calling FoFJK, ICntrl=      2127 FMM=F ISym2X=0 I1Cent= 0 IOpClX= 0 NMat=1 NMatS=1 NMatT=0.
 ***** Axes restored to original set *****
 -------------------------------------------------------------------
 Center     Atomic                   Forces (Hartrees/Bohr)
 Number     Number              X              Y              Z
 -------------------------------------------------------------------
      1       14           0.012153440    0.031109294   -0.048656847
      2        8          -0.018419009   -0.018193914   -0.008561038
      3        1          -0.000718487    0.005544774    0.003132647
      4        8          -0.001688607    0.018398368    0.016365438
      5        1           0.011546499   -0.004402718   -0.001399973
      6        8          -0.004606874    0.000034714    0.009525903
      7        8           0.007245248   -0.017475592    0.028758687
      8        1          -0.006577944   -0.003810904   -0.004241790
      9        8          -0.005567016   -0.006677037    0.011682848
     10        6           0.001845200   -0.007594568   -0.013788017
     11        1          -0.000734609    0.001845542    0.000406889
     12        1          -0.002674979    0.001145368    0.002418421
     13        6           0.010793860   -0.002311155    0.006117762
     14        1           0.002113332    0.001730537    0.000167672
     15        1          -0.004710052    0.000657290   -0.001928603
 -------------------------------------------------------------------
 Cartesian Forces:  Max     0.048656847 RMS     0.012542337

 GradGradGradGradGradGradGradGradGradGradGradGradGradGradGradGradGradGrad
 Berny optimization.
 Using GEDIIS/GDIIS optimizer.
 FormGI is forming the generalized inverse of G from B-inverse, IUseBI=4.
 Internal  Forces:  Max     0.032189117 RMS     0.006495627
 Search for a local minimum.
 Step number   3 out of a maximum of   85
 All quantities printed in internal units (Hartrees-Bohrs-Radians)
 Mixed Optimization -- RFO/linear search
 Update second derivatives using D2CorX and points    2    3
 ITU=  0  1  0
 Use linear search instead of GDIIS.
     Eigenvalues ---    0.01125   0.02565   0.03257   0.03369   0.03466
     Eigenvalues ---    0.04931   0.05252   0.05942   0.06301   0.06718
     Eigenvalues ---    0.08695   0.10177   0.11004   0.11112   0.11562
     Eigenvalues ---    0.12160   0.15031   0.15406   0.15996   0.15999
     Eigenvalues ---    0.16073   0.16950   0.20425   0.21759   0.29524
     Eigenvalues ---    0.33009   0.33997   0.34031   0.34378   0.34406
     Eigenvalues ---    0.36108   0.38042   0.39082   0.40065   0.40168
     Eigenvalues ---    0.40922   0.53564   0.53667   0.53951
 RFO step:  Lambda=-1.47046247D-02 EMin= 1.12491136D-02
 Quartic linear search produced a step of -0.02369.
 Iteration  1 RMS(Cart)=  0.04479284 RMS(Int)=  0.00183960
 Iteration  2 RMS(Cart)=  0.00225586 RMS(Int)=  0.00091841
 Iteration  3 RMS(Cart)=  0.00000268 RMS(Int)=  0.00091841
 Iteration  4 RMS(Cart)=  0.00000000 RMS(Int)=  0.00091841
 Variable       Old X    -DE/DX   Delta X   Delta X   Delta X     New X
                                 (Linear)    (Quad)   (Total)
    R1        3.33708  -0.01869  -0.00277  -0.04587  -0.04863   3.28845
    R2        3.28354  -0.01911  -0.00214  -0.04576  -0.04789   3.23565
    R3        3.27962   0.00453  -0.00160   0.00788   0.00716   3.28678
    R4        3.42040  -0.03219  -0.00383  -0.08118  -0.08501   3.33540
    R5        3.30171   0.00316  -0.00193   0.00749   0.00617   3.30787
    R6        1.79297   0.00496   0.00060   0.00888   0.00949   1.80246
    R7        1.78769   0.01231   0.00068   0.02191   0.02260   1.81028
    R8        2.64818  -0.00481   0.00081  -0.01199  -0.01148   2.63671
    R9        1.78823   0.00827   0.00066   0.01474   0.01540   1.80363
   R10        2.64164  -0.00642   0.00083  -0.01181  -0.01158   2.63006
   R11        2.06976   0.00115  -0.00005   0.00311   0.00306   2.07282
   R12        2.07988   0.00157  -0.00011   0.00429   0.00418   2.08406
   R13        2.85098   0.00554   0.00016   0.01843   0.01771   2.86869
   R14        2.07418   0.00052  -0.00011   0.00139   0.00127   2.07545
   R15        2.07021   0.00200   0.00005   0.00548   0.00553   2.07574
    A1        1.62039  -0.01407  -0.00232  -0.09473  -0.09634   1.52405
    A2        1.51368   0.00587   0.00087   0.02213   0.02009   1.53377
    A3        1.70787   0.00292  -0.00391   0.03821   0.03474   1.74261
    A4        1.83123   0.00299  -0.00559   0.04014   0.03492   1.86615
    A5        1.51637   0.00276   0.00226   0.00093   0.00073   1.51709
    A6        1.71631   0.00568  -0.00048   0.06304   0.06204   1.77835
    A7        1.53143  -0.00002   0.00167   0.00729   0.00636   1.53779
    A8        1.68183   0.00616  -0.00257   0.06465   0.06169   1.74352
    A9        1.88093  -0.00374   0.00008  -0.02093  -0.02085   1.86008
   A10        1.83136   0.00171   0.00090   0.00895   0.00985   1.84121
   A11        1.97233  -0.00128  -0.00073  -0.01142  -0.01110   1.96123
   A12        1.90146  -0.00434  -0.00042  -0.02449  -0.02491   1.87654
   A13        1.98565  -0.00011  -0.00106   0.00165   0.00122   1.98688
   A14        1.92228   0.00035  -0.00003   0.00843   0.00897   1.93125
   A15        1.91638   0.00078  -0.00029   0.01284   0.01259   1.92898
   A16        1.83718   0.00192  -0.00005   0.01269   0.01182   1.84900
   A17        1.89450  -0.00023   0.00007  -0.01083  -0.01106   1.88344
   A18        1.98828  -0.00017  -0.00043  -0.00974  -0.01009   1.97818
   A19        1.90423  -0.00258   0.00073  -0.01196  -0.01122   1.89301
   A20        1.81937   0.00017   0.00024   0.00683   0.00607   1.82544
   A21        1.93397  -0.00115  -0.00017  -0.00389  -0.00368   1.93029
   A22        1.90156   0.00253  -0.00004   0.01687   0.01692   1.91847
   A23        1.93542   0.00218   0.00033   0.02105   0.02123   1.95665
   A24        1.96806  -0.00367  -0.00024  -0.03594  -0.03554   1.93252
   A25        1.90425  -0.00006  -0.00012  -0.00437  -0.00449   1.89976
   A26        3.13676  -0.01131  -0.00006  -0.09380  -0.09561   3.04115
   A27        3.13407  -0.00820  -0.00145  -0.07260  -0.07625   3.05782
   A28        2.88566  -0.00643   0.00666  -0.08315  -0.07379   2.81187
   A29        3.55116   0.00748  -0.00611   0.09437   0.08647   3.63763
    D1        2.71543   0.00484  -0.00427   0.08171   0.07616   2.79158
    D2       -0.83573  -0.00264   0.00185  -0.01266  -0.01031  -0.84604
    D3        0.87424   0.00375   0.00153   0.05246   0.05479   0.92903
    D4       -0.33711  -0.00109   0.00358  -0.01636  -0.01097  -0.34808
    D5        1.38913  -0.00168  -0.00079   0.00073  -0.00098   1.38814
    D6        3.06041   0.00534  -0.00308   0.06678   0.06281   3.12323
    D7        3.05818   0.00595  -0.00421   0.05939   0.05691   3.11509
    D8        1.35706   0.00239  -0.00040   0.02007   0.01940   1.37646
    D9       -0.32024  -0.00370   0.00197  -0.04482  -0.04369  -0.36392
   D10        2.36605  -0.00677  -0.00151  -0.03337  -0.03502   2.33103
   D11        0.70658   0.00666   0.00175   0.04867   0.05042   0.75701
   D12       -2.38437   0.00038  -0.00118   0.00295   0.00116  -2.38321
   D13       -0.83727   0.00186   0.00014   0.02647   0.02735  -0.80991
   D14        2.60024  -0.00477   0.00409  -0.03760  -0.03456   2.56568
   D15       -0.14305   0.00392  -0.00180   0.06384   0.06270  -0.08035
   D16       -1.85595  -0.00165  -0.00140   0.00115  -0.00016  -1.85611
   D17        0.64936   0.00084  -0.00150   0.01364   0.01296   0.66233
   D18        2.73230   0.00294  -0.00105   0.04053   0.03982   2.77212
   D19       -1.45568   0.00378  -0.00132   0.04350   0.04281  -1.41287
   D20        2.66812  -0.00319   0.00076  -0.06677  -0.06597   2.60215
   D21       -1.52976  -0.00276   0.00065  -0.06686  -0.06603  -1.59579
   D22        0.51770  -0.00436   0.00133  -0.06762  -0.06632   0.45138
   D23       -0.71246   0.00045  -0.00019   0.02604   0.02636  -0.68610
   D24       -2.79441   0.00061  -0.00031   0.01605   0.01609  -2.77832
   D25        1.34746   0.00171  -0.00023   0.03207   0.03210   1.37956
   D26       -2.82011  -0.00119   0.00012   0.01265   0.01315  -2.80696
   D27        1.38113  -0.00103   0.00001   0.00266   0.00289   1.38401
   D28       -0.76019   0.00007   0.00009   0.01868   0.01890  -0.74129
   D29        1.34323   0.00111  -0.00020   0.04194   0.04181   1.38503
   D30       -0.73872   0.00127  -0.00032   0.03195   0.03154  -0.70719
   D31       -2.88004   0.00237  -0.00023   0.04797   0.04755  -2.83249
         Item               Value     Threshold  Converged?
 Maximum Force            0.032189     0.000450     NO 
 RMS     Force            0.006496     0.000300     NO 
 Maximum Displacement     0.146019     0.001800     NO 
 RMS     Displacement     0.044595     0.001200     NO 
 Predicted change in Energy=-8.349516D-03
 GradGradGradGradGradGradGradGradGradGradGradGradGradGradGradGradGradGrad

                          Input orientation:                          
 ---------------------------------------------------------------------
 Center     Atomic      Atomic             Coordinates (Angstroms)
 Number     Number       Type             X           Y           Z
 ---------------------------------------------------------------------
      1         14           0        0.072935    0.202193   -0.293740
      2          8           0        1.742571   -0.063389    0.118550
      3          1           0        2.144310    0.798305    0.195133
      4          8           0        0.040931   -1.411322   -0.865824
      5          1           0        0.956882   -1.647145   -1.017848
      6          8           0        0.004796    1.361707    1.000869
      7          8           0        0.272489    1.243687   -1.704679
      8          1           0       -0.306181    0.914757   -2.388712
      9          8           0       -1.674124    0.114309   -0.229361
     10          6           0       -2.237144    0.858763    0.803023
     11          1           0       -3.229953    1.227366    0.517324
     12          1           0       -2.352849    0.239123    1.707956
     13          6           0       -1.246984    1.969314    1.104213
     14          1           0       -1.390568    2.389954    2.108536
     15          1           0       -1.332811    2.777577    0.365359
 ---------------------------------------------------------------------
                    Distance matrix (angstroms):
                    1          2          3          4          5
     1  Si   0.000000
     2  O    1.740173   0.000000
     3  H    2.210191   0.953821   0.000000
     4  O    1.712232   2.383588   3.229905   0.000000
     5  H    2.173879   2.101664   2.976833   0.957961   0.000000
     6  O    1.739289   2.414383   2.354603   3.342984   3.746315
     7  O    1.765016   2.682117   2.703954   2.793988   3.049105
     8  H    2.245080   3.382383   3.562966   2.801842   3.168270
     9  O    1.750452   3.438956   3.902369   2.382026   3.262916
    10  C    2.640158   4.142100   4.423836   3.623253   4.449376
    11  H    3.552164   5.152773   5.400982   4.424303   5.305578
    12  H    3.145247   4.403430   4.777632   3.883104   4.684265
    13  C    2.611354   3.747112   3.701157   4.119280   4.736976
    14  H    3.563575   4.449213   4.323173   5.034452   5.619873
    15  H    3.007181   4.194041   4.004606   4.577102   5.170505
                    6          7          8          9         10
     6  O    0.000000
     7  O    2.721320   0.000000
     8  H    3.433036   0.954440   0.000000
     9  O    2.426570   2.690977   2.678578   0.000000
    10  C    2.306163   3.568612   3.730808   1.391769   0.000000
    11  H    3.273449   4.147851   4.134152   2.053543   1.096888
    12  H    2.705302   4.421270   4.629041   2.056562   1.102835
    13  C    1.395284   3.274936   3.767987   2.324201   1.518044
    14  H    2.057002   4.315125   4.855651   3.274863   2.183026
    15  H    2.048842   3.035600   3.479796   2.750124   2.165921
                   11         12         13         14         15
    11  H    0.000000
    12  H    1.778634   0.000000
    13  C    2.197065   2.140329   0.000000
    14  H    2.695720   2.390089   1.098281   0.000000
    15  H    2.454668   3.047424   1.098435   1.786688   0.000000
 Stoichiometry    C2H7O5Si(1-)
 Framework group  C1[X(C2H7O5Si)]
 Deg. of freedom    39
 Full point group                 C1      NOp   1
 Largest Abelian subgroup         C1      NOp   1
 Largest concise Abelian subgroup C1      NOp   1
[...]
 ! D31   D(12,10,13,15)       -155.936          -DE/DX =    0.0                 !
 --------------------------------------------------------------------------------
 GradGradGradGradGradGradGradGradGradGradGradGradGradGradGradGradGradGrad


 ----------------------------------------------------------------------

 Electric dipole moment (input orientation):
 (Debye = 10**-18 statcoulomb cm , SI units = C m)
                  (au)            (Debye)         (10**-30 SI)
   Tot        0.137655D+01      0.349885D+01      0.116709D+02
   x         -0.701429D+00     -0.178285D+01     -0.594696D+01
   y          0.682028D+00      0.173354D+01      0.578247D+01
   z          0.968369D+00      0.246135D+01      0.821018D+01

 Dipole polarizability, Alpha (input orientation).
 (esu units = cm**3 , SI units = C**2 m**2 J**-1)
 Alpha(0;0):
               (au)            (10**-24 esu)      (10**-40 SI)
   iso        0.679417D+02      0.100679D+02      0.112021D+02
   aniso      0.131066D+02      0.194220D+01      0.216099D+01
   xx         0.713840D+02      0.105780D+02      0.117696D+02
   yx        -0.399800D+01     -0.592442D+00     -0.659181D+00
   yy         0.653956D+02      0.969063D+01      0.107823D+02
   zx        -0.478229D+01     -0.708663D+00     -0.788493D+00
   zy         0.297308D+01      0.440565D+00      0.490195D+00
   zz         0.670456D+02      0.993513D+01      0.110543D+02

 ----------------------------------------------------------------------

 Dipole orientation:
    14         -0.21509755          1.04321482         -0.53062291
     8          2.69691539          1.21211754         -2.05544079
     1          3.93633191          1.75419665         -0.86700373
     8         -0.75876618         -1.90423733         -1.62996193
     1          0.70035149         -2.34213365         -2.60022005
     8          1.34019276          1.42597010          2.32489787
     8         -1.40898739          3.48167586         -2.19589091
     1         -3.08245057          3.75094471         -1.57158276
     8         -3.10679353          0.94577609          1.26752977
     6         -2.67833161          0.23862352          3.73574959
     1         -4.22181892          0.85599464          4.98300492
     1         -2.51133766         -1.83466312          3.92537769
     6         -0.17273840          1.47816768          4.47625026
     1          0.75887850          0.48249786          6.04077780
     1         -0.50600748          3.44236144          5.08097707

 Electric dipole moment (dipole orientation):
 (Debye = 10**-18 statcoulomb cm , SI units = C m)
                  (au)            (Debye)         (10**-30 SI)
   Tot        0.137655D+01      0.349885D+01      0.116709D+02
   x          0.000000D+00      0.000000D+00      0.000000D+00
   y          0.000000D+00      0.000000D+00      0.000000D+00
   z          0.137655D+01      0.349885D+01      0.116709D+02

 Dipole polarizability, Alpha (dipole orientation).
 (esu units = cm**3 , SI units = C**2 m**2 J**-1)
 Alpha(0;0):
               (au)            (10**-24 esu)      (10**-40 SI)
   iso        0.679417D+02      0.100679D+02      0.112021D+02
   aniso      0.131066D+02      0.194220D+01      0.216099D+01
   xx         0.654398D+02      0.969718D+01      0.107896D+02
   yx         0.730008D-01      0.108176D-01      0.120362D-01
   yy         0.630987D+02      0.935026D+01      0.104036D+02
   zx        -0.392103D+01     -0.581036D+00     -0.646490D+00
   zy        -0.222981D+00     -0.330424D-01     -0.367646D-01
   zz         0.752867D+02      0.111563D+02      0.124131D+02

 ----------------------------------------------------------------------
 Unable to Open any file for archive entry.
 1\1\GINC-CDR1476\Freq\RwB97XD\def2TZVPP\C2H7O5Si1(1-)\ARHENDER\15-Nov-
 2023\0\\#N Geom=AllCheck Guess=TCheck SCRF=Check GenChk RwB97XD/def2TZ
 VPP Freq\\Bidentate QL1 complex with EG conformer opt\\-1,1\Si,0.12841
 99399,0.3165011101,-0.5290469714\O,1.8589193947,0.2215941946,-0.355755
 1006\H,2.1368802108,0.8759076201,0.2787306717\O,-0.0501548239,-1.34932
 7469,-0.3121051089\H,0.8315696199,-1.6876136152,-0.1650422834\O,0.0860
 415598,1.3605128238,0.8529766559\O,0.2332076126,0.890684905,-2.1102190
 043\H,-0.6645964687,1.0450826488,-2.3996510845\O,-1.6610654167,0.51703
 34526,-0.6138452156\C,-2.1898928154,0.8774860363,0.6059169498\H,-3.170
 0737551,1.3630678276,0.4921640555\H,-2.3287260972,0.0012684522,1.26512
 42089\C,-1.1685436448,1.8295545409,1.232204635\H,-1.2506482903,1.86185
 72502,2.3268746088\H,-1.3270370256,2.8515902218,0.8524729831\\Version=
 ES64L-G16RevC.01\State=1-A\HF=-746.3577699\RMSD=1.322e-09\RMSF=7.541e-
 06\ZeroPoint=0.1105825\Thermal=0.1194587\ETot=-746.2383112\HTot=-746.2
 37367\GTot=-746.2806023\Dipole=-0.7014287,0.6820278,0.9683694\DipoleDe
 riv=2.6689263,-0.1759997,-0.2417366,-0.3921588,2.1309761,0.1088893,-0.
 1588579,0.1018238,2.1380118,-1.3725998,0.0224576,-0.0214923,0.0921306,
 -0.6911213,0.0707875,0.0139041,0.0635199,-0.6472096,0.3651992,-0.04259
 53,-0.0378354,-0.0579685,0.1652728,-0.0716798,-0.0607552,-0.0690026,0.
 1968448,-0.6376224,-0.0643125,0.0667431,0.0415345,-1.2970172,-0.000849
 4,0.0239155,0.0407558,-0.670281,0.1388091,0.0842635,-0.0126719,0.07687
 ,0.3231869,-0.0017306,-0.0217488,0.0089805,0.2549927,-1.186001,0.23951
 46,0.1957568,0.2452766,-0.8296618,-0.343497,0.2334642,-0.3699958,-0.90
 35127,-0.6448588,0.0094951,0.1267839,0.0101769,-0.7312106,0.1820558,0.
 1023104,0.1498924,-1.2875344,0.1454971,0.0264834,-0.098633,0.0283117,0
 .250358,-0.0158357,-0.1002202,0.0027637,0.3667075,-1.186822,0.126239,0
 .3087534,0.1103358,-0.6416963,-0.1829385,0.2660299,-0.1556269,-1.11968
 34,0.5199915,-0.07288,-0.1326871,-0.1557309,0.4023142,0.0502466,-0.353
 244,0.0428014,0.7096878,-0.3119785,0.120806,0.0428422,0.1787033,-0.053
 8284,-0.015017,-0.0224407,-0.0028369,0.0025022,-0.0268173,-0.0297942,0
 .0302178,-0.1046947,-0.1787966,0.1706071,0.1011779,0.1229559,-0.184236
 1,0.601962,-0.3259347,-0.2888837,-0.1837012,0.4665717,0.0366784,-0.084
 7547,0.0344223,0.4931838,-0.017029,0.0163598,0.0458042,0.0208304,0.004
 2835,-0.0038661,0.0810347,-0.0931755,-0.3348216,-0.0566565,0.0658973,0
 .0170385,0.0900843,-0.319631,0.0161495,-0.0198152,0.1227221,-0.0146517
 \Polar=71.383983,-3.9979994,65.3955849,-4.7822919,2.9730826,67.0456112
 \Quadrupole=-1.9284183,1.4432279,0.4851904,-1.285372,3.0522528,-1.0419
 766\PG=C01 [X(C2H7O5Si1)]\NImag=0\\0.36536161,-0.01548289,0.44567989,-
 0.00210802,-0.02528078,0.44668418,-0.12451932,0.01064601,-0.00134436,0
 .26741480,-0.00811970,-0.05199526,-0.00346754,0.10184021,0.31789750,-0
 .01605815,-0.00006066,-0.04610612,0.12275982,0.26607018,0.30058278,-0.
 00942103,-0.01993314,-0.01971683,-0.07077808,-0.09276885,-0.09733509,0
 .08343582,0.00049601,0.00110206,-0.00096263,-0.11660736,-0.26278706,-0
 .25587346,0.11276791,0.26741638,-0.00111806,-0.00476539,0.00007108,-0.
 11991850,-0.25395785,-0.24657482,0.11599538,0.25663887,0.25177156,-0.0
 4891261,-0.00026070,0.00034019,-0.02015054,-0.02886935,-0.00418281,-0.
 00420141,-0.00223302,0.00283664,0.54113546,-0.03111897,-0.19531574,0.0
 1990344,-0.02321382,-0.01606829,-0.00300911,-0.00315496,-0.00115728,0.
 00252552,-0.14473046,0.33914350,0.00447757,0.02036099,-0.04576199,-0.0
 0215005,-0.00122623,0.01309051,0.00167220,0.00121189,-0.00013861,0.077
 46945,-0.05970484,0.05159565,0.00151890,0.00119167,-0.00004212,-0.0061
 8087,-0.00302925,-0.00024080,-0.00086346,-0.00043502,-0.00011319,-0.46
 222686,0.18611738,-0.07709039,0.46858986,0.03042060,-0.01803894,0.0063
 4850,0.00134057,0.00455831,0.00010143,0.00061785,0.00103884,-0.0007329
 4,0.15074422,-0.09459530,0.02921123,-0.18285447,0.11133946,-0.00442691
 ,0.00321726,0.00342398,-0.00082726,0.00011844,-0.00381632,-0.00021734,
 -0.00130469,0.00028183,-0.07236119,0.03344220,-0.02492102,0.07742972,-
 0.03557236,0.02397571,-0.05185358,0.00105521,-0.00005648,-0.02934040,0
 .02267876,0.02290197,0.00346815,0.00320227,0.00312265,0.00637698,0.001
 90287,0.00043734,-0.00071824,-0.00252652,-0.00005601,0.38777264,-0.001
 08188,-0.07050624,-0.04214477,0.01765463,-0.00416826,-0.01242841,-0.00
 090599,-0.00288447,-0.00124676,0.00018378,-0.00876682,-0.00841068,-0.0
 0093069,0.00046709,-0.00043386,-0.09196089,0.17704589,-0.00253771,-0.0
 4171164,-0.09199625,0.01714425,-0.01223325,-0.00479573,-0.00093787,-0.
 00143068,-0.00315117,-0.00083935,-0.00387974,0.00219623,0.00025125,0.0
 0051983,-0.00071360,-0.06414536,0.12021781,0.21053550,-0.04632212,0.00
 287867,-0.00407181,-0.01600051,0.00827924,-0.02559021,-0.00216764,0.00
 180425,-0.00111474,0.00648453,0.00031861,-0.00014241,-0.00064213,-0.00
 191331,0.00078149,0.00595117,-0.00093961,-0.00127111,0.55719350,-0.006
 50969,-0.06216447,0.05060734,0.00534998,0.00575071,0.00633953,0.001483
 68,-0.00134445,0.00109722,-0.00027243,-0.00678568,0.01402209,-0.001498
 76,-0.00021983,0.00038594,0.00075176,0.00471972,-0.00416756,-0.0782289
 9,0.07708841,0.01899035,0.05237639,-0.18394395,-0.01486733,0.00584240,
 -0.01239798,-0.00033484,0.00160610,-0.00069626,0.00012581,0.00732270,-
 0.00194827,0.00035572,-0.00051710,-0.00082402,0.00288400,-0.00010297,-
 0.00818214,0.13005271,-0.10544875,0.30148057,0.00008800,0.00029210,-0.
 00247250,0.00078152,0.00000321,-0.00082810,0.00002043,0.00046978,-0.00
 023408,-0.00053679,-0.00060174,0.00139295,-0.00020651,0.00004182,-0.00
 008097,-0.00092968,-0.00040679,0.00078204,-0.47756085,0.08527469,-0.16
 353328,0.48560724,0.01004200,0.00100556,0.00689287,0.00044161,0.002496
 20,0.00117365,0.00048614,-0.00042693,0.00070709,-0.00108828,-0.0007601
 4,0.00009960,0.00012934,0.00017035,-0.00023224,-0.00022610,-0.00058999
 ,-0.00055315,0.07354139,-0.02836259,0.03272349,-0.08436397,0.02926981,
 -0.02874208,0.00868025,-0.01363865,-0.00324223,0.00177200,-0.00425281,
 -0.00068092,0.00056607,-0.00009920,0.00165906,-0.00050213,-0.00033924,
 -0.00004196,-0.00043489,0.00008637,0.00191228,-0.00014999,0.00011847,-
 0.12963917,0.03050426,-0.07556743,0.16047719,-0.03877733,0.09004153,-0
 .06046147,0.00090698,-0.00623222,-0.00355577,0.00001308,-0.00121455,0.
 00040809,-0.00013313,-0.00007545,-0.01771563,0.01669101,-0.00434713,0.
 00053366,0.00373938,0.00030019,-0.01348043,-0.02050337,-0.03648328,-0.
 02300802,-0.00375159,0.02446069,-0.00583870,0.00112026,-0.00172563,0.2
 5821374,-0.00003193,-0.04033161,0.00018508,0.00050826,0.00367713,0.000
 61502,0.00087418,-0.00000460,-0.00019095,0.02670378,-0.01542014,0.0041
 9994,0.00149905,-0.00472401,-0.00043539,-0.00597604,0.00497777,-0.0094
 5710,-0.00208453,0.01026282,0.00271837,-0.00088291,-0.00283878,0.00024
 340,-0.04009874,0.12136602,-0.00775302,-0.00141726,-0.05268014,0.00037
 506,0.00054617,0.00459454,0.00118647,-0.00016442,-0.00042785,-0.000461
 84,-0.00024635,0.00732739,0.00009724,0.00013326,0.00204880,-0.00751403
 ,-0.00822603,-0.00435919,0.03229670,0.00626766,-0.01929627,0.00345899,
 -0.00116928,0.00432978,-0.09783354,0.08756869,0.37599983,-0.02646906,0
 .00491361,0.01480990,0.00133230,0.00030698,0.00022236,0.00029052,-0.00
 013179,-0.00012336,0.00129241,-0.00187590,0.00051660,0.00039468,-0.000
 28534,-0.00042036,-0.05527495,-0.00949231,-0.00079242,-0.00080347,-0.0
 0125032,0.00188560,-0.00199821,-0.00038268,0.00121879,-0.11037115,0.01
 912220,0.05232283,0.58104341,0.01234096,0.00311089,-0.00131697,0.00015
 408,-0.00142273,-0.00106551,-0.00070404,0.00010739,0.00003835,-0.00017
 700,-0.00133817,0.00102114,0.00014153,0.00009947,0.00062354,0.00734647
 ,0.00677633,-0.00648614,-0.00447145,0.00042444,0.00290509,0.00040586,0
 .00017048,-0.00211975,0.03117352,-0.08486404,-0.04538809,-0.04597553,0
 .51940538,0.03949589,-0.00260065,0.00531133,-0.00143908,-0.00091677,-0
 .00167845,-0.00041860,-0.00003368,0.00009060,-0.00621066,0.00651644,-0
 .00397529,-0.00099779,0.00170341,0.00034712,-0.00290284,-0.00451843,-0
 .01154457,-0.00517940,-0.00082450,0.00404746,0.00167069,-0.00000825,-0
 .00243383,0.07118089,-0.04635845,-0.22802570,-0.02352186,-0.04872749,0
 .48591649,0.00448604,-0.00044029,-0.00036502,-0.00074218,0.00025588,0.
 00018959,0.00032799,-0.00005480,-0.00005209,-0.00084904,0.00143293,-0.
 00012914,0.00000013,0.00016655,-0.00005961,-0.00399605,-0.00305780,-0.
 00113287,-0.00096398,-0.00044360,0.00146588,0.00010528,0.00022327,-0.0
 0052298,-0.01493970,0.00674280,0.01279412,-0.22897255,0.08757737,-0.03
 553668,0.25862538,-0.00446433,-0.00163518,-0.00148449,0.00016657,0.000
 35190,0.00030021,0.00017353,-0.00001414,-0.00002678,0.00071242,-0.0002
 1522,-0.00014428,-0.00006334,-0.00011598,0.00009289,-0.00504059,-0.000
 53405,-0.00048835,0.00075150,0.00034530,-0.00055176,-0.00014783,-0.000
 07895,0.00037885,0.01304459,-0.00206366,-0.00916688,0.09113998,-0.0966
 6713,0.01971454,-0.10342484,0.10202727,-0.00451208,-0.00189892,-0.0040
 1135,0.00003331,0.00032743,0.00039068,0.00022291,-0.00003793,-0.000046
 62,0.00108085,-0.00105792,0.00073274,0.00006613,-0.00039909,0.00011662
 ,-0.00327916,-0.00165960,0.00136388,0.00119231,0.00069832,-0.00110779,
 0.00007609,-0.00018709,0.00032150,0.04031151,-0.01790773,-0.00508097,-
 0.03974548,0.01991521,-0.05459333,0.02720719,-0.01457421,0.06157410,0.
 00132069,-0.00210152,0.00212091,-0.00007064,0.00024300,-0.00013289,0.0
 0002505,-0.00000650,0.00002038,0.00038215,0.00036239,-0.00044702,0.000
 02430,-0.00003458,-0.00015469,0.00162135,0.00151994,-0.00089062,-0.000
 92787,0.00032172,0.00059003,0.00008646,0.00003128,-0.00052744,-0.00111
 221,-0.00854383,0.01798003,-0.05745602,-0.01499242,0.00651677,0.002583
 76,0.02377249,-0.01549086,0.05589097,0.00262522,-0.00079844,0.00026151
 ,-0.00038202,0.00021887,-0.00000988,0.00012123,-0.00005299,0.00003369,
 -0.00068428,0.00118025,-0.00077580,-0.00030415,0.00007333,0.00014401,-
 0.00078884,0.00243950,-0.00031663,-0.00017053,0.00005086,0.00023155,0.
 00006026,-0.00002617,-0.00018862,-0.00214261,0.01738146,-0.00117259,-0
 .01706200,-0.20132345,0.09919212,-0.00047094,-0.01180579,0.00742400,0.
 02222266,0.21539389,-0.00733833,0.00342431,-0.00407684,0.00037997,-0.0
 0032023,0.00041872,-0.00005489,0.00001675,-0.00003565,0.00023709,-0.00
 159482,0.00124632,0.00017964,-0.00025023,0.00000733,0.00111755,0.00110
 082,0.00146321,0.00262288,-0.00037133,-0.00161788,-0.00035883,-0.00015
 746,0.00148384,0.01891404,0.01653501,-0.03926408,0.00896745,0.10190628
 ,-0.11012511,-0.00133973,0.00705738,-0.00102723,-0.01942546,-0.1127795
 2,0.14311997,0.00216623,0.02208779,0.02886061,0.00472010,-0.00251093,-
 0.00238452,-0.00154965,0.00069118,0.00080340,-0.00197298,-0.00343489,-
 0.00248337,-0.00024630,0.00093998,0.00010054,-0.21553537,0.05947916,0.
 05124094,-0.00221370,-0.00130925,-0.00334754,0.00058803,0.00006709,-0.
 00049918,-0.01021287,0.00518287,-0.00266695,-0.10990362,-0.05376098,-0
 .03370172,-0.01583765,-0.01745650,-0.00830269,-0.00105604,0.00046915,-
 0.00216588,0.44409600,0.00983260,-0.01266147,-0.01575764,0.00017419,0.
 00234411,-0.00097118,0.00167655,-0.00096543,-0.00021553,0.00000841,0.0
 0116177,0.00072732,0.00006845,-0.00024432,-0.00003591,0.04518262,-0.09
 718234,-0.01864666,0.00014818,-0.00041992,0.00265669,-0.00011184,0.000
 51549,-0.00002628,0.00185690,-0.00738961,-0.02215384,-0.04179049,-0.12
 582453,-0.01595383,0.01342331,0.00917875,0.00960928,-0.02031604,-0.021
 25356,-0.01245102,-0.02528477,0.54717779,0.01180553,-0.01290091,-0.015
 87072,0.00174013,-0.00190655,0.00112957,0.00107339,-0.00023868,-0.0010
 4351,0.00018690,0.00131945,0.00095956,0.00011625,-0.00020097,0.0000739
 6,0.03028491,-0.02146144,-0.09278030,-0.00017726,0.00087700,0.00084553
 ,-0.00031459,-0.00048197,-0.00021714,-0.00547639,-0.03580637,-0.045495
 96,-0.01910019,-0.01457273,-0.07704223,-0.00253468,-0.00079983,0.00095
 284,0.01067549,0.01116101,0.00678114,-0.01980945,-0.00733984,0.5971394
 9,-0.00468657,-0.00419196,-0.00308157,-0.00160286,0.00143402,0.0004825
 7,0.00047075,-0.00004103,0.00017641,0.00052493,0.00037035,0.00019899,0
 .00000699,-0.00021663,0.00002852,-0.01469783,0.01054139,0.04074361,0.0
 0064793,0.00034218,0.00069674,-0.00019112,-0.00008532,0.00024979,-0.00
 026767,-0.00472783,-0.00395243,0.00678591,0.00321323,-0.01943616,-0.00
 078193,0.00056944,0.00067834,0.00104906,0.00020365,0.00058125,-0.04674
 828,-0.00196916,0.00122601,0.05706415,-0.00000386,0.00088710,-0.000101
 44,0.00064185,-0.00043114,-0.00008771,-0.00012294,0.00003197,-0.000051
 75,0.00001687,-0.00035018,0.00014056,0.00001746,0.00001889,-0.00003439
 ,0.00476359,0.00021655,-0.01570221,0.00018620,0.00009480,-0.00069372,-
 0.00003897,-0.00020486,0.00005267,-0.00191984,-0.00230331,-0.00380061,
 0.00240616,0.00079913,-0.01931295,-0.00102012,-0.00014975,-0.00012484,
 0.00064771,0.00045855,0.00027183,-0.00119290,-0.05201188,0.00496793,-0
 .00405885,0.05281808,-0.00106073,0.00397631,0.00241153,0.00133236,-0.0
 0079105,-0.00034527,-0.00048017,0.00004118,-0.00003333,0.00013175,-0.0
 0095726,0.00007952,0.00003895,0.00009656,-0.00003984,0.01216563,-0.007
 84256,-0.00720166,0.00034524,-0.00021671,-0.00111358,-0.00003169,-0.00
 003277,0.00026156,-0.00143325,-0.00339290,-0.00116946,0.00315416,0.004
 92717,-0.01086205,-0.00097992,-0.00071794,-0.00044451,0.00007185,-0.00
 103468,0.00146019,0.00449829,0.00001459,-0.28714088,-0.01631507,0.0047
 2231,0.31673805,-0.00229571,-0.00156154,-0.00664067,-0.00130757,0.0002
 4369,0.00141082,0.00053448,0.00021126,-0.00020539,0.00036940,0.0009352
 0,0.00062441,0.00001585,-0.00018012,-0.00003612,-0.01936376,0.03990043
 ,-0.00113151,0.00033316,-0.00025940,0.00057546,-0.00001511,0.00006399,
 0.00010448,0.00180813,0.00171266,-0.00032963,0.00010980,-0.02227161,0.
 01048055,0.00095451,0.00026691,0.00046164,-0.00236103,-0.00369678,-0.0
 0231673,-0.04629391,0.01710109,-0.00969604,0.00242653,-0.00032237,-0.0
 0143740,0.06508525,0.00105587,0.00166185,0.00631752,0.00128525,-0.0004
 2199,-0.00109409,-0.00061115,-0.00005929,0.00014720,-0.00005397,-0.000
 71255,-0.00073290,-0.00004921,0.00017264,0.00002456,0.01963542,-0.0120
 1069,-0.00566452,-0.00009961,0.00055988,-0.00106848,0.00000633,-0.0003
 3949,0.00000148,0.00000357,0.00227456,-0.00161042,0.00035743,-0.019453
 46,0.01212849,-0.00090972,0.00137664,-0.00012690,-0.00312632,-0.001936
 32,-0.00238778,0.01603301,-0.24242485,0.07738392,-0.00138349,0.0001260
 5,0.00120773,-0.03214342,0.27118703,0.00088576,-0.00139931,0.00018390,
 0.00002393,0.00014286,-0.00023929,0.00002620,-0.00003469,0.00003194,-0
 .00001191,-0.00007760,-0.00014350,-0.00000863,-0.00000665,-0.00004692,
 0.00312757,-0.01269310,0.00904734,-0.00010521,0.00022950,0.00032202,-0
 .00000391,0.00000286,-0.00009475,-0.00034589,0.00148337,0.00149928,0.0
 0060598,-0.01166011,0.00456756,0.00099595,0.00041066,0.00085943,-0.000
 90648,-0.00217018,0.00016605,-0.01014248,0.08054387,-0.08829137,-0.002
 27700,0.02975432,-0.01260026,0.00813612,-0.08452579,0.08473857\\0.0000
 2179,-0.00001746,-0.00000495,-0.00001798,-0.00000426,0.00001136,0.0000
 0082,-0.00001255,0.00000553,-0.00000287,0.00000428,-0.00000781,-0.0000
 0805,-0.00000529,-0.00000206,-0.00000295,0.00000893,0.00001440,0.00000
 306,-0.00000771,-0.00000526,0.00000675,0.00000904,0.00000239,-0.000004
 16,0.00000780,0.00000021,-0.00000169,0.00000317,-0.00000781,0.00000115
 ,0.00000823,-0.00000504,-0.00000532,0.00000411,-0.00000431,0.00000571,
 0.00000110,0.00000090,-0.00000172,-0.00000117,0.00000070,0.00000545,0.
 00000178,0.00000175\\\@
 The archive entry for this job was punched.


 DIATOMIC MOLECULES ARE PECULIAR BECAUSE THEY ONLY HAVE TWO ENDS,
 AND THESE ENDS ARE VERY CLOSE TOGETHER.
 KLAUS RUEDENBERG, REV.MOD.PHYS. PG 176, 32, (1960)
 Job cpu time:       0 days  2 hours 15 minutes 56.4 seconds.
 Elapsed time:       0 days  0 hours  8 minutes 32.6 seconds.
 File lengths (MBytes):  RWF=    176 Int=      0 D2E=      0 Chk=     11 Scr=      1
 Normal termination of Gaussian 16 at Wed Nov 15 12:19:39 2023.
