 Entering Gaussian System, Link 0=/opt/software/gaussian/g16.c01/g16
 Initial command:
 /opt/software/gaussian/g16.c01/l1.exe "/scratch/arhender/12631916/Gau-205158.inp" -scrdir="/scratch/arhender/12631916/"
 Entering Link 1 = /opt/software/gaussian/g16.c01/l1.exe PID=    205159.
  
 Copyright (c) 1988-2019, Gaussian, Inc.  All Rights Reserved.
  
 This is part of the Gaussian(R) 16 program.  It is based on
 the Gaussian(R) 09 system (copyright 2009, Gaussian, Inc.),
 the Gaussian(R) 03 system (copyright 2003, Gaussian, Inc.),
 the Gaussian(R) 98 system (copyright 1998, Gaussian, Inc.),
 the Gaussian(R) 94 system (copyright 1995, Gaussian, Inc.),
 the Gaussian 92(TM) system (copyright 1992, Gaussian, Inc.),
 the Gaussian 90(TM) system (copyright 1990, Gaussian, Inc.),
 the Gaussian 88(TM) system (copyright 1988, Gaussian, Inc.),
 the Gaussian 86(TM) system (copyright 1986, Carnegie Mellon
 University), and the Gaussian 82(TM) system (copyright 1983,
 Carnegie Mellon University). Gaussian is a federally registered
 trademark of Gaussian, Inc.
  
 This software contains proprietary and confidential information,
 including trade secrets, belonging to Gaussian, Inc.
  
 This software is provided under written license and may be
 used, copied, transmitted, or stored only in accord with that
 written license.
  
 The following legend is applicable only to US Government
 contracts under FAR:
  
                    RESTRICTED RIGHTS LEGEND
  
 Use, reproduction and disclosure by the US Government is
 subject to restrictions as set forth in subparagraphs (a)
 and (c) of the Commercial Computer Software - Restricted
 Rights clause in FAR 52.227-19.
  
 Gaussian, Inc.
 340 Quinnipiac St., Bldg. 40, Wallingford CT 06492
  
  
 ---------------------------------------------------------------
 Warning -- This program may not be used in any manner that
 competes with the business of Gaussian, Inc. or will provide
 assistance to any competitor of Gaussian, Inc.  The licensee
 of this program is prohibited from giving any competitor of
 Gaussian, Inc. access to this program.  By using this program,
 the user acknowledges that Gaussian, Inc. is engaged in the
 business of creating and licensing software in the field of
 computational chemistry and represents and warrants to the
 licensee that it is not a competitor of Gaussian, Inc. and that
 it will not use this program in any manner prohibited above.
 ---------------------------------------------------------------
  

 Cite this work as:
 Gaussian 16, Revision C.01,
 M. J. Frisch, G. W. Trucks, H. B. Schlegel, G. E. Scuseria, 
 M. A. Robb, J. R. Cheeseman, G. Scalmani, V. Barone, 
 G. A. Petersson, H. Nakatsuji, X. Li, M. Caricato, A. V. Marenich, 
 J. Bloino, B. G. Janesko, R. Gomperts, B. Mennucci, H. P. Hratchian, 
 J. V. Ortiz, A. F. Izmaylov, J. L. Sonnenberg, D. Williams-Young, 
 F. Ding, F. Lipparini, F. Egidi, J. Goings, B. Peng, A. Petrone, 
 T. Henderson, D. Ranasinghe, V. G. Zakrzewski, J. Gao, N. Rega, 
 G. Zheng, W. Liang, M. Hada, M. Ehara, K. Toyota, R. Fukuda, 
 J. Hasegawa, M. Ishida, T. Nakajima, Y. Honda, O. Kitao, H. Nakai, 
 T. Vreven, K. Throssell, J. A. Montgomery, Jr., J. E. Peralta, 
 F. Ogliaro, M. J. Bearpark, J. J. Heyd, E. N. Brothers, K. N. Kudin, 
 V. N. Staroverov, T. A. Keith, R. Kobayashi, J. Normand, 
 K. Raghavachari, A. P. Rendell, J. C. Burant, S. S. Iyengar, 
 J. Tomasi, M. Cossi, J. M. Millam, M. Klene, C. Adamo, R. Cammi, 
 J. W. Ochterski, R. L. Martin, K. Morokuma, O. Farkas, 
 J. B. Foresman, and D. J. Fox, Gaussian, Inc., Wallingford CT, 2019.
 
 ******************************************
 Gaussian 16:  ES64L-G16RevC.01  3-Jul-2019
                19-Sep-2023 
 ******************************************
 %chk=QLConformer7Opt.chk
 %mem=8GB
 %nprocs=16
 Will use up to   16 processors via shared memory.
 ---------------------------------------------
 # opt freq wb97xd/def2tzvpp geom=connectivity
 ---------------------------------------------
 1/18=20,19=15,26=3,38=1,57=2/1,3;
 2/9=110,12=2,17=6,18=5,40=1/2;
 3/5=44,7=202,11=2,25=1,30=1,71=1,74=-58/1,2,3;
 4//1;
 5/5=2,38=5/2;
 6/7=2,8=2,9=2,10=2,28=1/1;
 7//1,2,3,16;
 1/18=20,19=15,26=3/3(2);
 2/9=110/2;
 99//99;
 2/9=110/2;
 3/5=44,7=202,11=2,25=1,30=1,71=1,74=-58/1,2,3;
 4/5=5,16=3,69=1/1;
 5/5=2,38=5/2;
 7//1,2,3,16;
 1/18=20,19=15,26=3/3(-5);
 2/9=110/2;
 6/7=2,8=2,9=2,10=2,19=2,28=1/1;
 99/9=1/99;
 ------------------------------
 Monodendate QL Conformer 7 Opt
 ------------------------------
 Symbolic Z-matrix:
 Charge =  0 Multiplicity = 1
 Si                    0.        0.        0. 
 O                     1.6383    0.        0. 
 H                     2.0309    0.8858    0. 
 O                    -0.5335    1.14     -1.0503 
 H                    -1.4804    1.3318   -0.9765 
 O                    -0.5432   -1.4741   -0.4871 
 H                    -0.0077   -1.8605   -1.1985 
 O                    -0.5891    0.3194    1.503 
 C                    -0.3171   -0.5688    2.5896 
 H                    -0.2439    0.0633    3.4818 
 H                     0.6451   -1.084     2.4717 
 C                    -1.4627   -1.5659    2.7979 
 H                    -1.429    -1.9595    3.8181 
 H                    -2.4369   -1.0951    2.6333 
 O                    -1.3564   -2.6853    1.9217 
 H                    -1.3063   -2.3415    1.0062 
 

 GradGradGradGradGradGradGradGradGradGradGradGradGradGradGradGradGradGrad
 Berny optimization.
 Initialization pass.
                           ----------------------------
                           !    Initial Parameters    !
                           ! (Angstroms and Degrees)  !
 --------------------------                            --------------------------
 ! Name  Definition              Value          Derivative Info.                !
 --------------------------------------------------------------------------------
 ! R1    R(1,2)                  1.6383         estimate D2E/DX2                !
 ! R2    R(1,4)                  1.6393         estimate D2E/DX2                !
 ! R3    R(1,6)                  1.6448         estimate D2E/DX2                !
 ! R4    R(1,8)                  1.6456         estimate D2E/DX2                !
 ! R5    R(2,3)                  0.9689         estimate D2E/DX2                !
 ! R6    R(4,5)                  0.9689         estimate D2E/DX2                !
 ! R7    R(6,7)                  0.9706         estimate D2E/DX2                !
 ! R8    R(8,9)                  1.4295         estimate D2E/DX2                !
 ! R9    R(9,10)                 1.0959         estimate D2E/DX2                !
 ! R10   R(9,11)                 1.0978         estimate D2E/DX2                !
 ! R11   R(9,12)                 1.533          estimate D2E/DX2                !
 ! R12   R(12,13)                1.094          estimate D2E/DX2                !
 ! R13   R(12,14)                1.0944         estimate D2E/DX2                !
 ! R14   R(12,15)                1.4255         estimate D2E/DX2                !
 ! R15   R(15,16)                0.9792         estimate D2E/DX2                !
 ! A1    A(2,1,4)              108.9923         estimate D2E/DX2                !
 ! A2    A(2,1,6)              109.2844         estimate D2E/DX2                !
 ! A3    A(2,1,8)              110.9762         estimate D2E/DX2                !
 ! A4    A(4,1,6)              109.0279         estimate D2E/DX2                !
 ! A5    A(4,1,8)              109.4931         estimate D2E/DX2                !
 ! A6    A(6,1,8)              109.0387         estimate D2E/DX2                !
 ! A7    A(1,2,3)              113.9036         estimate D2E/DX2                !
 ! A8    A(1,4,5)              114.0098         estimate D2E/DX2                !
 ! A9    A(1,6,7)              113.0557         estimate D2E/DX2                !
 ! A10   A(1,8,9)              120.3661         estimate D2E/DX2                !
 ! A11   A(8,9,10)             105.8529         estimate D2E/DX2                !
 ! A12   A(8,9,11)             112.1309         estimate D2E/DX2                !
 ! A13   A(8,9,12)             111.4212         estimate D2E/DX2                !
 ! A14   A(10,9,11)            107.4328         estimate D2E/DX2                !
 ! A15   A(10,9,12)            108.3285         estimate D2E/DX2                !
 ! A16   A(11,9,12)            111.3671         estimate D2E/DX2                !
 ! A17   A(9,12,13)            109.737          estimate D2E/DX2                !
 ! A18   A(9,12,14)            111.4055         estimate D2E/DX2                !
 ! A19   A(9,12,15)            111.8092         estimate D2E/DX2                !
 ! A20   A(13,12,14)           108.8102         estimate D2E/DX2                !
 ! A21   A(13,12,15)           106.7604         estimate D2E/DX2                !
 ! A22   A(14,12,15)           108.1637         estimate D2E/DX2                !
 ! A23   A(12,15,16)           107.6244         estimate D2E/DX2                !
 ! D1    D(4,1,2,3)             42.6549         estimate D2E/DX2                !
 ! D2    D(6,1,2,3)            161.7144         estimate D2E/DX2                !
 ! D3    D(8,1,2,3)            -78.0026         estimate D2E/DX2                !
 ! D4    D(2,1,4,5)           -167.986          estimate D2E/DX2                !
 ! D5    D(6,1,4,5)             72.7947         estimate D2E/DX2                !
 ! D6    D(8,1,4,5)            -46.4225         estimate D2E/DX2                !
 ! D7    D(2,1,6,7)            -38.358          estimate D2E/DX2                !
 ! D8    D(4,1,6,7)             80.6795         estimate D2E/DX2                !
 ! D9    D(8,1,6,7)           -159.821          estimate D2E/DX2                !
 ! D10   D(2,1,8,9)            -62.561          estimate D2E/DX2                !
 ! D11   D(4,1,8,9)            177.0781         estimate D2E/DX2                !
 ! D12   D(6,1,8,9)             57.8676         estimate D2E/DX2                !
 ! D13   D(1,8,9,10)           146.6772         estimate D2E/DX2                !
 ! D14   D(1,8,9,11)            29.8252         estimate D2E/DX2                !
 ! D15   D(1,8,9,12)           -95.7702         estimate D2E/DX2                !
 ! D16   D(8,9,12,13)         -158.4323         estimate D2E/DX2                !
 ! D17   D(8,9,12,14)          -37.8628         estimate D2E/DX2                !
 ! D18   D(8,9,12,15)           83.3023         estimate D2E/DX2                !
 ! D19   D(10,9,12,13)         -42.3867         estimate D2E/DX2                !
 ! D20   D(10,9,12,14)          78.1828         estimate D2E/DX2                !
 ! D21   D(10,9,12,15)        -160.6521         estimate D2E/DX2                !
 ! D22   D(11,9,12,13)          75.5499         estimate D2E/DX2                !
 ! D23   D(11,9,12,14)        -163.8806         estimate D2E/DX2                !
 ! D24   D(11,9,12,15)         -42.7155         estimate D2E/DX2                !
 ! D25   D(9,12,15,16)         -55.1104         estimate D2E/DX2                !
 ! D26   D(13,12,15,16)       -175.1361         estimate D2E/DX2                !
 ! D27   D(14,12,15,16)         67.9144         estimate D2E/DX2                !
 --------------------------------------------------------------------------------
 Trust Radius=3.00D-01 FncErr=1.00D-07 GrdErr=1.00D-06 EigMax=2.50D+02 EigMin=1.00D-04
 Number of steps in this run=     75 maximum allowed number of steps=    100.
 GradGradGradGradGradGradGradGradGradGradGradGradGradGradGradGradGradGrad

                          Input orientation:                          
 ---------------------------------------------------------------------
 Center     Atomic      Atomic             Coordinates (Angstroms)
 Number     Number       Type             X           Y           Z
 ---------------------------------------------------------------------
      1         14           0        0.000000    0.000000    0.000000
      2          8           0        1.638300    0.000000    0.000000
      3          1           0        2.030900    0.885800    0.000000
      4          8           0       -0.533500    1.140000   -1.050300
      5          1           0       -1.480400    1.331800   -0.976500
      6          8           0       -0.543200   -1.474100   -0.487100
      7          1           0       -0.007700   -1.860500   -1.198500
      8          8           0       -0.589100    0.319400    1.503000
      9          6           0       -0.317100   -0.568800    2.589600
     10          1           0       -0.243900    0.063300    3.481800
     11          1           0        0.645100   -1.084000    2.471700
     12          6           0       -1.462700   -1.565900    2.797900
     13          1           0       -1.429000   -1.959500    3.818100
     14          1           0       -2.436900   -1.095100    2.633300
     15          8           0       -1.356400   -2.685300    1.921700
     16          1           0       -1.306300   -2.341500    1.006200
 ---------------------------------------------------------------------
                    Distance matrix (angstroms):
                    1          2          3          4          5
     1  Si   0.000000
     2  O    1.638300   0.000000
     3  H    2.215671   0.968905   0.000000
     4  O    1.639315   2.668229   2.782785   0.000000
     5  H    2.217843   3.528956   3.671743   0.968944   0.000000
     6  O    1.644781   2.677532   3.525959   2.674099   2.998488
     7  H    2.213125   2.758111   3.624149   3.049824   3.522628
     8  O    1.645620   2.705982   3.073145   2.682502   2.822639
     9  C    2.670227   3.294412   3.786158   4.026872   4.205070
    10  H    3.490906   3.958486   4.239593   4.667235   4.797339
    11  H    2.774979   2.875900   3.451066   4.328944   4.716346
    12  C    3.524171   4.460548   5.103363   4.795201   4.758474
    13  H    4.523225   5.275022   5.885960   5.840389   5.815796
    14  H    3.751266   4.974009   5.551529   4.710362   4.453694
    15  O    3.569816   4.457802   5.283889   4.913539   4.955001
    16  H    2.863823   3.894320   4.750243   4.116704   4.177863
                    6          7          8          9         10
     6  O    0.000000
     7  H    0.970647   0.000000
     8  O    2.679412   3.519672   0.000000
     9  C    3.215085   4.014215   1.429539   0.000000
    10  H    4.266772   5.065768   2.024944   1.095869   0.000000
    11  H    3.212278   3.807817   2.105032   1.097798   1.768310
    12  C    3.412497   4.263218   2.448326   1.532970   2.146505
    13  H    4.422104   5.214995   3.355370   2.163234   2.368392
    14  H    3.669692   4.601037   2.587036   2.184595   2.621277
    15  O    2.816135   3.497847   3.129262   2.450675   3.350578
    16  H    1.888028   2.603541   2.800281   2.574517   3.611143
                   11         12         13         14         15
    11  H    0.000000
    12  C    2.186654   0.000000
    13  H    2.623201   1.094013   0.000000
    14  H    3.086254   1.094446   1.779551   0.000000
    15  O    2.621577   1.425511   2.031844   2.050022   0.000000
    16  H    2.745352   1.958623   2.840380   2.340774   0.979208
                   16
    16  H    0.000000
 Stoichiometry    C2H8O5Si
 Framework group  C1[X(C2H8O5Si)]
 Deg. of freedom    42
 Full point group                 C1      NOp   1
 Largest Abelian subgroup         C1      NOp   1
 Largest concise Abelian subgroup C1      NOp   1
                         Standard orientation:                         
 ---------------------------------------------------------------------
 Center     Atomic      Atomic             Coordinates (Angstroms)
 Number     Number       Type             X           Y           Z
 ---------------------------------------------------------------------
      1         14           0       -1.024439    0.029750   -0.017538
      2          8           0       -1.625757   -0.502469    1.410463
      3          1           0       -2.252957   -1.235833    1.323446
      4          8           0       -2.241817    0.109469   -1.112521
      5          1           0       -1.943261    0.237693   -2.025360
      6          8           0       -0.388168    1.532582    0.187303
      7          1           0       -0.910056    2.087596    0.788757
      8          8           0        0.150175   -0.979122   -0.574783
      9          6           0        1.353559   -1.169815    0.172936
     10          1           0        1.654273   -2.208717   -0.003656
     11          1           0        1.192534   -1.053020    1.252561
     12          6           0        2.474805   -0.251777   -0.327073
     13          1           0        3.445872   -0.659952   -0.031630
     14          1           0        2.451572   -0.149770   -1.416507
     15          8           0        2.386031    1.051639    0.243286
     16          1           0        1.490263    1.398259    0.052750
 ---------------------------------------------------------------------
 Rotational constants (GHZ):           2.8624372           1.1341618           1.0487276
 Standard basis: def2TZVPP (5D, 7F)
 There are   420 symmetry adapted cartesian basis functions of A   symmetry.
 There are   371 symmetry adapted basis functions of A   symmetry.
   371 basis functions,   562 primitive gaussians,   420 cartesian basis functions
    37 alpha electrons       37 beta electrons
       nuclear repulsion energy       527.2472419840 Hartrees.
 NAtoms=   16 NActive=   16 NUniq=   16 SFac= 1.00D+00 NAtFMM=   60 NAOKFM=F Big=F
 Integral buffers will be    131072 words long.
 Raffenetti 2 integral format.
 Two-electron integral symmetry is turned on.
 Nuclear repulsion after empirical dispersion term =      527.2396024981 Hartrees.
 One-electron integrals computed using PRISM.
   1 Symmetry operations used in ECPInt.
 ECPInt:  NShTT=    9730 NPrTT=   27009 LenC2=    9370 LenP2D=   20647.
 LDataN:  DoStor=T MaxTD1= 6 Len=  172
 NBasis=   371 RedAO= T EigKep=  2.93D-04  NBF=   371
 NBsUse=   371 1.00D-06 EigRej= -1.00D+00 NBFU=   371
 ExpMin= 7.01D-02 ExpMax= 4.48D+04 ExpMxC= 1.53D+03 IAcc=3 IRadAn=         5 AccDes= 0.00D+00
 Harris functional with IExCor= 4639 and IRadAn=       5 diagonalized for initial guess.
 HarFok:  IExCor= 4639 AccDes= 0.00D+00 IRadAn=         5 IDoV= 1 UseB2=F ITyADJ=14
 ICtDFT=  3500011 ScaDFX=  1.000000  1.000000  1.000000  1.000000
 FoFCou: FMM=F IPFlag=           0 FMFlag=      100000 FMFlg1=           0
         NFxFlg=           0 DoJE=T BraDBF=F KetDBF=T FulRan=T
         wScrn=  0.000000 ICntrl=       500 IOpCl=  0 I1Cent=   200000004 NGrid=           0
         NMat0=    1 NMatS0=      1 NMatT0=    0 NMatD0=    1 NMtDS0=    0 NMtDT0=    0
 Petite list used in FoFCou.
 Requested convergence on RMS density matrix=1.00D-08 within 128 cycles.
 Requested convergence on MAX density matrix=1.00D-06.
 Requested convergence on             energy=1.00D-06.
 No special actions if energy rises.
 Integral accuracy reduced to 1.0D-05 until final iterations.
 Initial convergence to 1.0D-05 achieved.  Increase integral accuracy.
 SCF Done:  E(RwB97XD) =  -746.911478561     A.U. after   13 cycles
            NFock= 13  Conv=0.91D-08     -V/T= 2.0037

 **********************************************************************

            Population analysis using the SCF Density.

 **********************************************************************

 Orbital symmetries:
       Occupied  (A) (A) (A) (A) (A) (A) (A) (A) (A) (A) (A) (A)
                 (A) (A) (A) (A) (A) (A) (A) (A) (A) (A) (A) (A)
                 (A) (A) (A) (A) (A) (A) (A) (A) (A) (A) (A) (A)
                 (A)
       Virtual   (A) (A) (A) (A) (A) (A) (A) (A) (A) (A) (A) (A)
                 (A) (A) (A) (A) (A) (A) (A) (A) (A) (A) (A) (A)
                 (A) (A) (A) (A) (A) (A) (A) (A) (A) (A) (A) (A)
                 (A) (A) (A) (A) (A) (A) (A) (A) (A) (A) (A) (A)
                 (A) (A) (A) (A) (A) (A) (A) (A) (A) (A) (A) (A)
                 (A) (A) (A) (A) (A) (A) (A) (A) (A) (A) (A) (A)
                 (A) (A) (A) (A) (A) (A) (A) (A) (A) (A) (A) (A)
                 (A) (A) (A) (A) (A) (A) (A) (A) (A) (A) (A) (A)
                 (A) (A) (A) (A) (A) (A) (A) (A) (A) (A) (A) (A)
                 (A) (A) (A) (A) (A) (A) (A) (A) (A) (A) (A) (A)
                 (A) (A) (A) (A) (A) (A) (A) (A) (A) (A) (A) (A)
                 (A) (A) (A) (A) (A) (A) (A) (A) (A) (A) (A) (A)
                 (A) (A) (A) (A) (A) (A) (A) (A) (A) (A) (A) (A)
                 (A) (A) (A) (A) (A) (A) (A) (A) (A) (A) (A) (A)
                 (A) (A) (A) (A) (A) (A) (A) (A) (A) (A) (A) (A)
                 (A) (A) (A) (A) (A) (A) (A) (A) (A) (A) (A) (A)
                 (A) (A) (A) (A) (A) (A) (A) (A) (A) (A) (A) (A)
                 (A) (A) (A) (A) (A) (A) (A) (A) (A) (A) (A) (A)
                 (A) (A) (A) (A) (A) (A) (A) (A) (A) (A) (A) (A)
                 (A) (A) (A) (A) (A) (A) (A) (A) (A) (A) (A) (A)
                 (A) (A) (A) (A) (A) (A) (A) (A) (A) (A) (A) (A)
                 (A) (A) (A) (A) (A) (A) (A) (A) (A) (A) (A) (A)
                 (A) (A) (A) (A) (A) (A) (A) (A) (A) (A) (A) (A)
                 (A) (A) (A) (A) (A) (A) (A) (A) (A) (A) (A) (A)
                 (A) (A) (A) (A) (A) (A) (A) (A) (A) (A) (A) (A)
                 (A) (A) (A) (A) (A) (A) (A) (A) (A) (A) (A) (A)
                 (A) (A) (A) (A) (A) (A) (A) (A) (A) (A) (A) (A)
                 (A) (A) (A) (A) (A) (A) (A) (A) (A) (A)
 The electronic state is 1-A.
 Alpha  occ. eigenvalues --  -66.32303 -19.27476 -19.26637 -19.26318 -19.25919
 Alpha  occ. eigenvalues --  -19.22644 -10.33936 -10.32402  -5.44000  -3.78533
 Alpha  occ. eigenvalues --   -3.78510  -3.78429  -1.15317  -1.11778  -1.11598
 Alpha  occ. eigenvalues --   -1.10858  -1.09597  -0.83235  -0.71967  -0.67552
 Alpha  occ. eigenvalues --   -0.63277  -0.61965  -0.60101  -0.57368  -0.56024
 Alpha  occ. eigenvalues --   -0.52146  -0.50578  -0.48791  -0.48112  -0.47298
 Alpha  occ. eigenvalues --   -0.45419  -0.44173  -0.43357  -0.42026  -0.40597
 Alpha  occ. eigenvalues --   -0.38270  -0.34291
 Alpha virt. eigenvalues --    0.07529   0.11806   0.12098   0.13873   0.16294
 Alpha virt. eigenvalues --    0.17075   0.18183   0.19105   0.19942   0.20707
 Alpha virt. eigenvalues --    0.21693   0.23729   0.26001   0.27195   0.27709
 Alpha virt. eigenvalues --    0.29165   0.30336   0.31604   0.32349   0.33882
 Alpha virt. eigenvalues --    0.35801   0.38693   0.40180   0.42123   0.42672
 Alpha virt. eigenvalues --    0.43925   0.45434   0.45697   0.47001   0.47936
 Alpha virt. eigenvalues --    0.48570   0.49205   0.50875   0.51552   0.53075
 Alpha virt. eigenvalues --    0.53717   0.54969   0.55137   0.55594   0.57401
 Alpha virt. eigenvalues --    0.57951   0.58975   0.61041   0.62421   0.64377
 Alpha virt. eigenvalues --    0.66462   0.68295   0.69781   0.70568   0.73058
 Alpha virt. eigenvalues --    0.73509   0.74747   0.77442   0.79355   0.80624
 Alpha virt. eigenvalues --    0.81257   0.81933   0.84089   0.84938   0.87147
 Alpha virt. eigenvalues --    0.88460   0.89242   0.90913   0.93011   0.94187
 Alpha virt. eigenvalues --    0.96268   0.97215   0.98156   0.99202   1.01916
 Alpha virt. eigenvalues --    1.04020   1.06063   1.06851   1.08498   1.09562
 Alpha virt. eigenvalues --    1.13877   1.15453   1.17202   1.17796   1.18684
 Alpha virt. eigenvalues --    1.20602   1.21905   1.22512   1.25075   1.26623
 Alpha virt. eigenvalues --    1.27656   1.28682   1.31090   1.32888   1.33538
 Alpha virt. eigenvalues --    1.35247   1.36514   1.39540   1.41333   1.44604
 Alpha virt. eigenvalues --    1.44900   1.45789   1.47580   1.49835   1.51532
 Alpha virt. eigenvalues --    1.53999   1.55090   1.57031   1.57712   1.62405
 Alpha virt. eigenvalues --    1.66028   1.68070   1.71665   1.77931   1.78904
 Alpha virt. eigenvalues --    1.79772   1.83652   1.85432   1.88064   1.90671
 Alpha virt. eigenvalues --    1.91113   1.94279   1.95566   1.96710   2.00173
 Alpha virt. eigenvalues --    2.02309   2.03305   2.04161   2.07588   2.09964
 Alpha virt. eigenvalues --    2.10678   2.13204   2.15122   2.19132   2.20516
 Alpha virt. eigenvalues --    2.22808   2.23814   2.24145   2.27660   2.30165
 Alpha virt. eigenvalues --    2.30837   2.32516   2.33746   2.39539   2.46971
 Alpha virt. eigenvalues --    2.48975   2.54916   2.57873   2.59773   2.60856
 Alpha virt. eigenvalues --    2.61546   2.67528   2.72135   2.73318   2.77959
 Alpha virt. eigenvalues --    2.78867   2.82441   2.83559   2.86814   2.87803
 Alpha virt. eigenvalues --    2.88348   2.91338   2.94770   2.96002   2.98994
 Alpha virt. eigenvalues --    3.00598   3.02814   3.05445   3.07952   3.11948
 Alpha virt. eigenvalues --    3.12296   3.15993   3.16327   3.18821   3.21818
 Alpha virt. eigenvalues --    3.22620   3.24776   3.28251   3.30779   3.31638
 Alpha virt. eigenvalues --    3.32282   3.34592   3.35052   3.35859   3.37365
 Alpha virt. eigenvalues --    3.39170   3.40251   3.40524   3.41077   3.44449
 Alpha virt. eigenvalues --    3.46890   3.48666   3.53179   3.56320   3.59201
 Alpha virt. eigenvalues --    3.60109   3.60631   3.65636   3.67888   3.68108
 Alpha virt. eigenvalues --    3.70901   3.72480   3.74993   3.76677   3.77077
 Alpha virt. eigenvalues --    3.78502   3.81812   3.84452   3.88503   3.90589
 Alpha virt. eigenvalues --    3.93657   3.94946   3.95691   3.97834   4.00475
 Alpha virt. eigenvalues --    4.00591   4.02683   4.06075   4.08442   4.09234
 Alpha virt. eigenvalues --    4.10068   4.10975   4.12797   4.14447   4.16153
 Alpha virt. eigenvalues --    4.16948   4.19452   4.20178   4.22060   4.25893
 Alpha virt. eigenvalues --    4.30348   4.30579   4.33344   4.34458   4.35141
 Alpha virt. eigenvalues --    4.36771   4.41476   4.45762   4.50926   4.55382
 Alpha virt. eigenvalues --    4.59231   4.63788   4.69748   4.73206   4.79626
 Alpha virt. eigenvalues --    4.80456   4.83267   4.84326   4.92129   4.93676
 Alpha virt. eigenvalues --    4.95245   4.95640   4.97626   4.98352   4.99936
 Alpha virt. eigenvalues --    5.03564   5.03722   5.05869   5.07832   5.13931
 Alpha virt. eigenvalues --    5.25299   5.26599   5.27672   5.28392   5.29356
 Alpha virt. eigenvalues --    5.37193   5.38523   5.40033   5.41600   5.43703
 Alpha virt. eigenvalues --    5.44278   5.48305   5.49060   5.49929   5.55752
 Alpha virt. eigenvalues --    5.56718   5.57641   5.61090   5.66526   5.67671
 Alpha virt. eigenvalues --    5.70984   5.73639   5.75829   5.80955   5.83893
 Alpha virt. eigenvalues --    5.90640   5.97765   6.01372   6.10924   6.19766
 Alpha virt. eigenvalues --    6.22676   6.47325   6.49435   6.49825   6.57140
 Alpha virt. eigenvalues --    6.58625   6.59838   6.60361   6.62415   6.65274
 Alpha virt. eigenvalues --    6.66143   6.68778   6.70414   6.71687   6.73089
 Alpha virt. eigenvalues --    6.75508   6.77366   6.77847   6.79377   6.81836
 Alpha virt. eigenvalues --    6.82564   6.84679   6.86388   6.88645   6.91742
 Alpha virt. eigenvalues --    7.01155   7.04544   7.07902   7.19131   7.22566
 Alpha virt. eigenvalues --    7.24690   7.31205   7.32539   7.33992   7.37829
 Alpha virt. eigenvalues --    7.40873   7.49516   7.58593   7.62609   7.68715
 Alpha virt. eigenvalues --    7.75080  12.20252  23.29272  23.42301  43.79426
 Alpha virt. eigenvalues --   43.83621  43.92543  44.07853  44.22559
          Condensed to atoms (all electrons):
               1          2          3          4          5          6
     1  Si  11.518542   0.454661  -0.017134   0.474602  -0.014325   0.408719
     2  O    0.454661   7.678346   0.329635  -0.023623   0.001293  -0.023542
     3  H   -0.017134   0.329635   0.491417  -0.000768  -0.000124   0.001309
     4  O    0.474602  -0.023623  -0.000768   7.675812   0.327222  -0.033562
     5  H   -0.014325   0.001293  -0.000124   0.327222   0.494386  -0.000490
     6  O    0.408719  -0.023542   0.001309  -0.033562  -0.000490   7.718883
     7  H   -0.008901  -0.000390  -0.000086  -0.000583   0.000082   0.327471
     8  O    0.441414  -0.022838  -0.000008  -0.025526  -0.000389  -0.021219
     9  C   -0.029712  -0.007054   0.001079  -0.001006  -0.000024   0.000282
    10  H    0.002699  -0.000155   0.000074  -0.000036  -0.000004  -0.000124
    11  H   -0.011634   0.004819  -0.000206  -0.000048  -0.000001   0.000297
    12  C    0.005113   0.001007  -0.000039  -0.000074  -0.000122  -0.002731
    13  H    0.000591   0.000012   0.000002  -0.000004  -0.000005  -0.000223
    14  H   -0.001638  -0.000023  -0.000000  -0.000045   0.000064   0.000273
    15  O    0.002355  -0.000078   0.000012  -0.000000  -0.000009  -0.015261
    16  H   -0.002448   0.000145  -0.000008  -0.000201  -0.000096   0.026160
               7          8          9         10         11         12
     1  Si  -0.008901   0.441414  -0.029712   0.002699  -0.011634   0.005113
     2  O   -0.000390  -0.022838  -0.007054  -0.000155   0.004819   0.001007
     3  H   -0.000086  -0.000008   0.001079   0.000074  -0.000206  -0.000039
     4  O   -0.000583  -0.025526  -0.001006  -0.000036  -0.000048  -0.000074
     5  H    0.000082  -0.000389  -0.000024  -0.000004  -0.000001  -0.000122
     6  O    0.327471  -0.021219   0.000282  -0.000124   0.000297  -0.002731
     7  H    0.480204   0.001070  -0.000442   0.000005   0.000108   0.000087
     8  O    0.001070   7.876436   0.246522  -0.037932  -0.041695  -0.044473
     9  C   -0.000442   0.246522   4.768063   0.377091   0.422448   0.319767
    10  H    0.000005  -0.037932   0.377091   0.630039  -0.026743  -0.022834
    11  H    0.000108  -0.041695   0.422448  -0.026743   0.606950  -0.048911
    12  C    0.000087  -0.044473   0.319767  -0.022834  -0.048911   4.685464
    13  H    0.000017   0.004711  -0.025704  -0.003059  -0.001702   0.395630
    14  H   -0.000011   0.002909  -0.044171   0.003038   0.009921   0.411383
    15  O    0.000540   0.001442  -0.050378   0.006447   0.004030   0.282110
    16  H   -0.000885  -0.000504  -0.000231  -0.000645  -0.001163  -0.028920
              13         14         15         16
     1  Si   0.000591  -0.001638   0.002355  -0.002448
     2  O    0.000012  -0.000023  -0.000078   0.000145
     3  H    0.000002  -0.000000   0.000012  -0.000008
     4  O   -0.000004  -0.000045  -0.000000  -0.000201
     5  H   -0.000005   0.000064  -0.000009  -0.000096
     6  O   -0.000223   0.000273  -0.015261   0.026160
     7  H    0.000017  -0.000011   0.000540  -0.000885
     8  O    0.004711   0.002909   0.001442  -0.000504
     9  C   -0.025704  -0.044171  -0.050378  -0.000231
    10  H   -0.003059   0.003038   0.006447  -0.000645
    11  H   -0.001702   0.009921   0.004030  -0.001163
    12  C    0.395630   0.411383   0.282110  -0.028920
    13  H    0.625181  -0.037865  -0.037090   0.008283
    14  H   -0.037865   0.645315  -0.048748  -0.009224
    15  O   -0.037090  -0.048748   7.913677   0.340412
    16  H    0.008283  -0.009224   0.340412   0.452243
 Mulliken charges:
               1
     1  Si   0.777094
     2  O   -0.392216
     3  H    0.194845
     4  O   -0.392160
     5  H    0.192543
     6  O   -0.386244
     7  H    0.201713
     8  O   -0.379919
     9  C    0.023469
    10  H    0.072138
    11  H    0.083531
    12  C    0.047541
    13  H    0.071223
    14  H    0.068824
    15  O   -0.399461
    16  H    0.217080
 Sum of Mulliken charges =  -0.00000
 Mulliken charges with hydrogens summed into heavy atoms:
               1
     1  Si   0.777094
     2  O   -0.197371
     4  O   -0.199617
     6  O   -0.184532
     8  O   -0.379919
     9  C    0.179137
    12  C    0.187588
    15  O   -0.182381
 Electronic spatial extent (au):  <R**2>=           1207.2965
 Charge=             -0.0000 electrons
 Dipole moment (field-independent basis, Debye):
    X=             -1.8067    Y=             -1.0668    Z=             -0.5412  Tot=              2.1669
 Quadrupole moment (field-independent basis, Debye-Ang):
   XX=            -56.8534   YY=            -50.1366   ZZ=            -51.2990
   XY=             -5.2035   XZ=             -2.1736   YZ=             -1.4643
 Traceless Quadrupole moment (field-independent basis, Debye-Ang):
   XX=             -4.0904   YY=              2.6264   ZZ=              1.4640
   XY=             -5.2035   XZ=             -2.1736   YZ=             -1.4643
 Octapole moment (field-independent basis, Debye-Ang**2):
  XXX=            -15.3639  YYY=              7.7848  ZZZ=            -16.2244  XYY=            -16.5275
  XXY=            -21.6877  XXZ=              1.3079  XZZ=             -9.9029  YZZ=              5.1257
  YYZ=             10.2316  XYZ=             -0.3194
 Hexadecapole moment (field-independent basis, Debye-Ang**3):
 XXXX=           -986.3432 YYYY=           -272.1723 ZZZZ=           -190.1172 XXXY=            -18.8430
 XXXZ=            -33.4975 YYYX=             -5.8286 YYYZ=              9.6494 ZZZX=             28.0951
 ZZZY=             -4.9332 XXYY=           -200.1947 XXZZ=           -183.2414 YYZZ=            -79.5353
 XXYZ=            -15.7049 YYXZ=            -15.9649 ZZXY=              0.3668
 N-N= 5.272396024981D+02 E-N=-2.822564869525D+03  KE= 7.441866206324D+02
   1 Symmetry operations used in ECPInt.
 ECPInt:  NShTT=    9730 NPrTT=   27009 LenC2=    9370 LenP2D=   20647.
 LDataN:  DoStor=T MaxTD1= 7 Len=  274
 Calling FoFJK, ICntrl=      2127 FMM=F ISym2X=0 I1Cent= 0 IOpClX= 0 NMat=1 NMatS=1 NMatT=0.
 ***** Axes restored to original set *****
 -------------------------------------------------------------------
 Center     Atomic                   Forces (Hartrees/Bohr)
 Number     Number              X              Y              Z
 -------------------------------------------------------------------
      1       14          -0.002991655    0.010289084    0.005566035
      2        8          -0.002000772    0.011377738   -0.004550422
      3        1          -0.003351645   -0.013033875   -0.000021834
      4        8          -0.010528768    0.001236242    0.009886090
      5        1           0.013135649   -0.000763480   -0.002794942
      6        8           0.015475597   -0.002591408   -0.008647483
      7        1          -0.010091332    0.002119612    0.010305024
      8        8           0.005339711   -0.011250490   -0.016114883
      9        6          -0.012988140    0.007512501    0.012631626
     10        1           0.000861255   -0.000766711   -0.001810059
     11        1          -0.004499915   -0.000768956   -0.001639034
     12        6           0.009068350   -0.012236602   -0.013544596
     13        1           0.000746276    0.000738142   -0.002377739
     14        1           0.002502269    0.006848365    0.004269664
     15        8          -0.000799434    0.009762888   -0.006045240
     16        1           0.000122552   -0.008473053    0.014887793
 -------------------------------------------------------------------
 Cartesian Forces:  Max     0.016114883 RMS     0.008104477

 GradGradGradGradGradGradGradGradGradGradGradGradGradGradGradGradGradGrad
 Berny optimization.
 FormGI is forming the generalized inverse of G from B-inverse, IUseBI=4.
 Internal  Forces:  Max     0.021786321 RMS     0.006236465
 Search for a local minimum.
 Step number   1 out of a maximum of   75
 All quantities printed in internal units (Hartrees-Bohrs-Radians)
 Mixed Optimization -- RFO/linear search
 Second derivative matrix not updated -- first step.
 ITU=  0
     Eigenvalues ---    0.00330   0.01301   0.01354   0.03736   0.03747
     Eigenvalues ---    0.03819   0.03833   0.04767   0.04879   0.05654
     Eigenvalues ---    0.05888   0.11534   0.11690   0.12009   0.12299
     Eigenvalues ---    0.12504   0.13911   0.13915   0.16000   0.16000
     Eigenvalues ---    0.16000   0.16000   0.20697   0.20814   0.22022
     Eigenvalues ---    0.22066   0.25000   0.29151   0.33927   0.34143
     Eigenvalues ---    0.34304   0.34353   0.41056   0.41641   0.43320
     Eigenvalues ---    0.43450   0.44310   0.44472   0.51539   0.53245
     Eigenvalues ---    0.53593   0.53601
 RFO step:  Lambda=-1.01664132D-02 EMin= 3.29819191D-03
 Linear search not attempted -- first point.
 Iteration  1 RMS(Cart)=  0.13024588 RMS(Int)=  0.00572903
 Iteration  2 RMS(Cart)=  0.00824937 RMS(Int)=  0.00058028
 Iteration  3 RMS(Cart)=  0.00001947 RMS(Int)=  0.00058008
 Iteration  4 RMS(Cart)=  0.00000000 RMS(Int)=  0.00058008
 Variable       Old X    -DE/DX   Delta X   Delta X   Delta X     New X
                                 (Linear)    (Quad)   (Total)
    R1        3.09594  -0.00535   0.00000  -0.01177  -0.01177   3.08417
    R2        3.09786  -0.00506   0.00000  -0.01117  -0.01117   3.08668
    R3        3.10819  -0.00185   0.00000  -0.00415  -0.00415   3.10403
    R4        3.10977  -0.01070   0.00000  -0.02413  -0.02413   3.08564
    R5        1.83096  -0.01327   0.00000  -0.02430  -0.02430   1.80666
    R6        1.83104  -0.01320   0.00000  -0.02417  -0.02417   1.80687
    R7        1.83426  -0.01396   0.00000  -0.02573  -0.02573   1.80852
    R8        2.70144   0.00227   0.00000   0.00539   0.00539   2.70682
    R9        2.07089  -0.00186   0.00000  -0.00528  -0.00528   2.06561
   R10        2.07454  -0.00341   0.00000  -0.00975  -0.00975   2.06478
   R11        2.89689  -0.00689   0.00000  -0.02285  -0.02285   2.87404
   R12        2.06739  -0.00246   0.00000  -0.00696  -0.00696   2.06043
   R13        2.06820   0.00008   0.00000   0.00022   0.00022   2.06842
   R14        2.69383  -0.00650   0.00000  -0.01523  -0.01523   2.67859
   R15        1.85044  -0.01689   0.00000  -0.03213  -0.03213   1.81830
    A1        1.90227  -0.00276   0.00000  -0.01348  -0.01322   1.88905
    A2        1.90737  -0.00601   0.00000  -0.02855  -0.02838   1.87899
    A3        1.93690   0.00808   0.00000   0.03651   0.03651   1.97341
    A4        1.90290   0.00839   0.00000   0.03934   0.03936   1.94225
    A5        1.91101  -0.00539   0.00000  -0.02392  -0.02379   1.88722
    A6        1.90308  -0.00223   0.00000  -0.00952  -0.00928   1.89380
    A7        1.98799   0.00406   0.00000   0.02385   0.02385   2.01184
    A8        1.98985   0.00472   0.00000   0.02776   0.02776   2.01760
    A9        1.97319   0.00767   0.00000   0.04509   0.04509   2.01828
   A10        2.10079   0.02179   0.00000   0.08374   0.08374   2.18453
   A11        1.84748  -0.00360   0.00000  -0.01071  -0.01105   1.83643
   A12        1.95705  -0.00286   0.00000  -0.01204  -0.01173   1.94532
   A13        1.94467   0.01050   0.00000   0.04660   0.04662   1.99129
   A14        1.87506   0.00189   0.00000   0.00428   0.00414   1.87920
   A15        1.89069  -0.00088   0.00000   0.00197   0.00176   1.89245
   A16        1.94372  -0.00521   0.00000  -0.03010  -0.02997   1.91375
   A17        1.91527  -0.00234   0.00000  -0.02778  -0.02820   1.88707
   A18        1.94439  -0.00931   0.00000  -0.04904  -0.05134   1.89305
   A19        1.95144   0.01162   0.00000   0.05830   0.05816   2.00960
   A20        1.89910   0.00199   0.00000  -0.01205  -0.01355   1.88554
   A21        1.86332  -0.00572   0.00000  -0.03464  -0.03366   1.82966
   A22        1.88781   0.00382   0.00000   0.06536   0.06566   1.95347
   A23        1.87840   0.00510   0.00000   0.02996   0.02996   1.90836
    D1        0.74447  -0.00281   0.00000  -0.01305  -0.01320   0.73127
    D2        2.82245   0.00218   0.00000   0.00986   0.01008   2.83253
    D3       -1.36140   0.00060   0.00000   0.00249   0.00242  -1.35898
    D4       -2.93191  -0.00285   0.00000  -0.01183  -0.01197  -2.94387
    D5        1.27051   0.00111   0.00000   0.00753   0.00748   1.27799
    D6       -0.81023   0.00200   0.00000   0.00974   0.00992  -0.80030
    D7       -0.66947   0.00234   0.00000   0.01234   0.01255  -0.65692
    D8        1.40812   0.00042   0.00000   0.00247   0.00234   1.41046
    D9       -2.78940  -0.00247   0.00000  -0.00888  -0.00896  -2.79837
   D10       -1.09190   0.00306   0.00000   0.05333   0.05326  -1.03863
   D11        3.09060   0.00488   0.00000   0.06253   0.06266  -3.12993
   D12        1.00998  -0.00078   0.00000   0.03460   0.03454   1.04452
   D13        2.56000  -0.00242   0.00000  -0.06007  -0.06002   2.49998
   D14        0.52055  -0.00102   0.00000  -0.05247  -0.05247   0.46808
   D15       -1.67151  -0.00009   0.00000  -0.03958  -0.03963  -1.71113
   D16       -2.76517   0.00156   0.00000   0.04944   0.04853  -2.71664
   D17       -0.66083  -0.00354   0.00000  -0.01600  -0.01524  -0.67607
   D18        1.45390   0.00295   0.00000   0.07422   0.07384   1.52774
   D19       -0.73979   0.00255   0.00000   0.06377   0.06309  -0.67669
   D20        1.36455  -0.00254   0.00000  -0.00168  -0.00068   1.36387
   D21       -2.80391   0.00394   0.00000   0.08854   0.08840  -2.71551
   D22        1.31859   0.00128   0.00000   0.05268   0.05205   1.37065
   D23       -2.86026  -0.00382   0.00000  -0.01277  -0.01172  -2.87197
   D24       -0.74553   0.00267   0.00000   0.07745   0.07736  -0.66817
   D25       -0.96186   0.00106   0.00000   0.00578   0.00398  -0.95788
   D26       -3.05670   0.00083   0.00000   0.02803   0.02771  -3.02899
   D27        1.18533  -0.00044   0.00000   0.02716   0.02929   1.21462
         Item               Value     Threshold  Converged?
 Maximum Force            0.021786     0.000450     NO 
 RMS     Force            0.006236     0.000300     NO 
 Maximum Displacement     0.556297     0.001800     NO 
 RMS     Displacement     0.130625     0.001200     NO 
 Predicted change in Energy=-5.485728D-03
 GradGradGradGradGradGradGradGradGradGradGradGradGradGradGradGradGradGrad

                          Input orientation:                          
 ---------------------------------------------------------------------
 Center     Atomic      Atomic             Coordinates (Angstroms)
 Number     Number       Type             X           Y           Z
 ---------------------------------------------------------------------
      1         14           0        0.016880    0.034503   -0.055088
      2          8           0        1.648716    0.018734   -0.078058
      3          1           0        2.065857    0.877697   -0.031189
      4          8           0       -0.495973    1.255164   -1.011630
      5          1           0       -1.425409    1.469557   -0.945207
      6          8           0       -0.503373   -1.419830   -0.613952
      7          1           0        0.008418   -1.795406   -1.330136
      8          8           0       -0.599730    0.266329    1.438982
      9          6           0       -0.368609   -0.584422    2.567941
     10          1           0       -0.302636    0.089272    3.426191
     11          1           0        0.586045   -1.109271    2.484146
     12          6           0       -1.482288   -1.586960    2.828148
     13          1           0       -1.450208   -1.863440    3.882356
     14          1           0       -2.441862   -1.096924    2.635407
     15          8           0       -1.364218   -2.813524    2.127601
     16          1           0       -1.283509   -2.635880    1.185388
 ---------------------------------------------------------------------
                    Distance matrix (angstroms):
                    1          2          3          4          5
     1  Si   0.000000
     2  O    1.632074   0.000000
     3  H    2.215820   0.956045   0.000000
     4  O    1.633403   2.645753   2.768885   0.000000
     5  H    2.220786   3.508145   3.657139   0.956152   0.000000
     6  O    1.642582   2.643508   3.495596   2.704403   3.050972
     7  H    2.230333   2.747614   3.614665   3.108349   3.586643
     8  O    1.632849   2.723641   3.104920   2.644629   2.795328
     9  C    2.722489   3.381524   3.849662   4.026615   4.204504
    10  H    3.496339   4.011547   4.264370   4.592487   4.719632
    11  H    2.842512   2.994420   3.530552   4.356807   4.738856
    12  C    3.631762   4.563713   5.180703   4.877949   4.856309
    13  H    4.610639   5.369430   5.932317   5.881102   5.866417
    14  H    3.816320   5.033926   5.597267   4.756015   4.521150
    15  O    3.844843   4.686617   5.481871   5.211799   5.271686
    16  H    3.218809   4.152254   5.004352   4.537325   4.627545
                    6          7          8          9         10
     6  O    0.000000
     7  H    0.957030   0.000000
     8  O    2.658375   3.505512   0.000000
     9  C    3.292493   4.099224   1.432390   0.000000
    10  H    4.317457   5.125564   2.017080   1.093073   0.000000
    11  H    3.298711   3.918313   2.095401   1.092636   1.764570
    12  C    3.582494   4.422328   2.478583   1.520878   2.135178
    13  H    4.616284   5.413159   3.351016   2.129185   2.310431
    14  H    3.797413   4.713521   2.585216   2.136723   2.570736
    15  O    3.193674   3.857024   3.247173   2.480732   3.352538
    16  H    2.307599   2.950141   2.992437   2.637608   3.661934
                   11         12         13         14         15
    11  H    0.000000
    12  C    2.150472   0.000000
    13  H    2.582652   1.090332   0.000000
    14  H    3.031708   1.094561   1.767994   0.000000
    15  O    2.614408   1.417451   1.997303   2.089473   0.000000
    16  H    2.740901   1.959186   2.810354   2.410959   0.962204
                   16
    16  H    0.000000
 Stoichiometry    C2H8O5Si
 Framework group  C1[X(C2H8O5Si)]
 Deg. of freedom    42
 Full point group                 C1      NOp   1
 Largest Abelian subgroup         C1      NOp   1
 Largest concise Abelian subgroup C1      NOp   1
                         Standard orientation:                         
 ---------------------------------------------------------------------
 Center     Atomic      Atomic             Coordinates (Angstroms)
 Number     Number       Type             X           Y           Z
 ---------------------------------------------------------------------
      1         14           0       -1.078122    0.041468   -0.021896
      2          8           0       -1.678858   -0.254031    1.466547
      3          1           0       -2.272782   -1.000846    1.526079
      4          8           0       -2.285877   -0.141944   -1.106190
      5          1           0       -2.018035   -0.159717   -2.023889
      6          8           0       -0.498615    1.578411   -0.029219
      7          1           0       -1.011111    2.216580    0.466759
      8          8           0        0.134014   -0.971459   -0.435298
      9          6           0        1.367301   -1.116794    0.278581
     10          1           0        1.610567   -2.180701    0.217494
     11          1           0        1.249918   -0.863542    1.334961
     12          6           0        2.523497   -0.324540   -0.311855
     13          1           0        3.453860   -0.806469   -0.010205
     14          1           0        2.455237   -0.372800   -1.403219
     15          8           0        2.638728    1.009630    0.152775
     16          1           0        1.806119    1.470076    0.009288
 ---------------------------------------------------------------------
 Rotational constants (GHZ):           2.9162595           1.0496845           0.9816960
 Standard basis: def2TZVPP (5D, 7F)
 There are   420 symmetry adapted cartesian basis functions of A   symmetry.
 There are   371 symmetry adapted basis functions of A   symmetry.
   371 basis functions,   562 primitive gaussians,   420 cartesian basis functions
    37 alpha electrons       37 beta electrons
       nuclear repulsion energy       521.3573454524 Hartrees.
 NAtoms=   16 NActive=   16 NUniq=   16 SFac= 1.00D+00 NAtFMM=   60 NAOKFM=F Big=F
 Integral buffers will be    131072 words long.
 Raffenetti 2 integral format.
 Two-electron integral symmetry is turned on.
 Nuclear repulsion after empirical dispersion term =      521.3498614243 Hartrees.
 One-electron integrals computed using PRISM.
   1 Symmetry operations used in ECPInt.
 ECPInt:  NShTT=    9730 NPrTT=   27009 LenC2=    9331 LenP2D=   20488.
 LDataN:  DoStor=T MaxTD1= 6 Len=  172
 NBasis=   371 RedAO= T EigKep=  2.99D-04  NBF=   371
 NBsUse=   371 1.00D-06 EigRej= -1.00D+00 NBFU=   371
 Initial guess from the checkpoint file:  "QLConformer7Opt.chk"
 B after Tr=     0.000000   -0.000000   -0.000000
         Rot=    0.997493    0.070641   -0.000964    0.003966 Ang=   8.12 deg.
 ExpMin= 7.01D-02 ExpMax= 4.48D+04 ExpMxC= 1.53D+03 IAcc=3 IRadAn=         5 AccDes= 0.00D+00
 Harris functional with IExCor= 4639 and IRadAn=       5 diagonalized for initial guess.
 HarFok:  IExCor= 4639 AccDes= 0.00D+00 IRadAn=         5 IDoV= 1 UseB2=F ITyADJ=14
 ICtDFT=  3500011 ScaDFX=  1.000000  1.000000  1.000000  1.000000
 FoFCou: FMM=F IPFlag=           0 FMFlag=      100000 FMFlg1=           0
         NFxFlg=           0 DoJE=T BraDBF=F KetDBF=T FulRan=T
         wScrn=  0.000000 ICntrl=       500 IOpCl=  0 I1Cent=   200000004 NGrid=           0
         NMat0=    1 NMatS0=      1 NMatT0=    0 NMatD0=    1 NMtDS0=    0 NMtDT0=    0
 Petite list used in FoFCou.
 Requested convergence on RMS density matrix=1.00D-08 within 128 cycles.
 Requested convergence on MAX density matrix=1.00D-06.
 Requested convergence on             energy=1.00D-06.
 No special actions if energy rises.
 Integral accuracy reduced to 1.0D-05 until final iterations.
 Initial convergence to 1.0D-05 achieved.  Increase integral accuracy.
 SCF Done:  E(RwB97XD) =  -746.914889892     A.U. after   12 cycles
            NFock= 12  Conv=0.55D-08     -V/T= 2.0035
   1 Symmetry operations used in ECPInt.
 ECPInt:  NShTT=    9730 NPrTT=   27009 LenC2=    9331 LenP2D=   20488.
 LDataN:  DoStor=T MaxTD1= 7 Len=  274
 Calling FoFJK, ICntrl=      2127 FMM=F ISym2X=0 I1Cent= 0 IOpClX= 0 NMat=1 NMatS=1 NMatT=0.
 ***** Axes restored to original set *****
 -------------------------------------------------------------------
 Center     Atomic                   Forces (Hartrees/Bohr)
 Number     Number              X              Y              Z
 -------------------------------------------------------------------
      1       14          -0.003634406    0.000968550    0.002513963
      2        8          -0.002293998    0.001603594   -0.001671915
      3        1           0.001282256   -0.001591196   -0.000148495
      4        8          -0.000479619   -0.000744992    0.004609718
      5        1           0.001392924    0.001273846   -0.001055461
      6        8           0.004164183   -0.000303584    0.003896125
      7        1          -0.001886715   -0.000422371    0.001353661
      8        8           0.000668951   -0.010936312   -0.005042395
      9        6          -0.001303476    0.007100359    0.002122123
     10        1           0.000052251   -0.001142108    0.000011572
     11        1           0.000544570   -0.000274736   -0.001594602
     12        6           0.002703789   -0.004727429   -0.003968496
     13        1          -0.000114860    0.001098412    0.000626159
     14        1          -0.001194670   -0.000357024   -0.000472028
     15        8           0.000620641    0.006945479   -0.002644877
     16        1          -0.000521821    0.001509512    0.001464946
 -------------------------------------------------------------------
 Cartesian Forces:  Max     0.010936312 RMS     0.002942572

 GradGradGradGradGradGradGradGradGradGradGradGradGradGradGradGradGradGrad
 Berny optimization.
 Using GEDIIS/GDIIS optimizer.
 FormGI is forming the generalized inverse of G from B-inverse, IUseBI=4.
 Internal  Forces:  Max     0.012336791 RMS     0.003756788
 Search for a local minimum.
 Step number   2 out of a maximum of   75
 All quantities printed in internal units (Hartrees-Bohrs-Radians)
 Mixed Optimization -- RFO/linear search
 Update second derivatives using D2CorX and points    1    2
 DE= -3.41D-03 DEPred=-5.49D-03 R= 6.22D-01
 TightC=F SS=  1.41D+00  RLast= 2.89D-01 DXNew= 5.0454D-01 8.6580D-01
 Trust test= 6.22D-01 RLast= 2.89D-01 DXMaxT set to 5.05D-01
 ITU=  1  0
 Use linear search instead of GDIIS.
     Eigenvalues ---    0.00358   0.01344   0.01390   0.03694   0.03747
     Eigenvalues ---    0.03819   0.03833   0.04265   0.05019   0.05867
     Eigenvalues ---    0.06042   0.11091   0.11783   0.11999   0.12337
     Eigenvalues ---    0.12457   0.13777   0.14092   0.14842   0.16000
     Eigenvalues ---    0.16000   0.16178   0.18139   0.21059   0.22064
     Eigenvalues ---    0.23670   0.28563   0.32381   0.34026   0.34129
     Eigenvalues ---    0.34311   0.34468   0.40630   0.42362   0.42896
     Eigenvalues ---    0.43447   0.44329   0.44729   0.51887   0.53150
     Eigenvalues ---    0.53591   0.53866
 RFO step:  Lambda=-5.35842374D-03 EMin= 3.58014732D-03
 Quartic linear search produced a step of -0.20802.
 Iteration  1 RMS(Cart)=  0.13076341 RMS(Int)=  0.00504837
 Iteration  2 RMS(Cart)=  0.00833991 RMS(Int)=  0.00038193
 Iteration  3 RMS(Cart)=  0.00004091 RMS(Int)=  0.00038055
 Iteration  4 RMS(Cart)=  0.00000001 RMS(Int)=  0.00038055
 Variable       Old X    -DE/DX   Delta X   Delta X   Delta X     New X
                                 (Linear)    (Quad)   (Total)
    R1        3.08417  -0.00099   0.00245  -0.01071  -0.00826   3.07591
    R2        3.08668  -0.00197   0.00232  -0.01203  -0.00971   3.07697
    R3        3.10403  -0.00186   0.00086  -0.00657  -0.00570   3.09833
    R4        3.08564  -0.00935   0.00502  -0.03551  -0.03048   3.05515
    R5        1.80666  -0.00088   0.00505  -0.01989  -0.01483   1.79183
    R6        1.80687  -0.00114   0.00503  -0.02018  -0.01515   1.79171
    R7        1.80852  -0.00186   0.00535  -0.02245  -0.01710   1.79143
    R8        2.70682  -0.00941  -0.00112  -0.01415  -0.01527   2.69156
    R9        2.06561  -0.00069   0.00110  -0.00558  -0.00448   2.06112
   R10        2.06478   0.00073   0.00203  -0.00563  -0.00360   2.06118
   R11        2.87404  -0.00490   0.00475  -0.03035  -0.02560   2.84844
   R12        2.06043   0.00032   0.00145  -0.00449  -0.00304   2.05739
   R13        2.06842   0.00097  -0.00005   0.00241   0.00236   2.07078
   R14        2.67859  -0.00673   0.00317  -0.02440  -0.02123   2.65736
   R15        1.81830  -0.00120   0.00668  -0.02640  -0.01971   1.79859
    A1        1.88905  -0.00205   0.00275  -0.01220  -0.00935   1.87970
    A2        1.87899  -0.00207   0.00590  -0.03008  -0.02403   1.85496
    A3        1.97341   0.00478  -0.00759   0.04263   0.03488   2.00829
    A4        1.94225   0.00692  -0.00819   0.05801   0.04987   1.99213
    A5        1.88722  -0.00112   0.00495  -0.02033  -0.01515   1.87208
    A6        1.89380  -0.00612   0.00193  -0.03519  -0.03303   1.86077
    A7        2.01184   0.00334  -0.00496   0.03335   0.02839   2.04023
    A8        2.01760   0.00326  -0.00577   0.03572   0.02995   2.04755
    A9        2.01828   0.00264  -0.00938   0.04511   0.03573   2.05401
   A10        2.18453  -0.00727  -0.01742   0.03906   0.02164   2.20617
   A11        1.83643   0.00608   0.00230   0.03654   0.03906   1.87549
   A12        1.94532   0.00185   0.00244  -0.03218  -0.03141   1.91392
   A13        1.99129  -0.01234  -0.00970  -0.01466  -0.02535   1.96594
   A14        1.87920  -0.00084  -0.00086   0.01605   0.01571   1.89490
   A15        1.89245   0.00395  -0.00037   0.03382   0.03364   1.92609
   A16        1.91375   0.00207   0.00623  -0.03219  -0.02722   1.88653
   A17        1.88707   0.00110   0.00587  -0.00443   0.00146   1.88853
   A18        1.89305   0.00269   0.01068  -0.03769  -0.02658   1.86648
   A19        2.00960  -0.00755  -0.01210   0.01196  -0.00015   2.00945
   A20        1.88554  -0.00083   0.00282  -0.00186   0.00114   1.88668
   A21        1.82966   0.00466   0.00700   0.01079   0.01753   1.84719
   A22        1.95347   0.00030  -0.01366   0.02176   0.00790   1.96138
   A23        1.90836  -0.00323  -0.00623   0.00569  -0.00054   1.90782
    D1        0.73127  -0.00193   0.00275  -0.01797  -0.01518   0.71608
    D2        2.83253   0.00399  -0.00210   0.02730   0.02530   2.85784
    D3       -1.35898  -0.00211  -0.00050  -0.01078  -0.01142  -1.37040
    D4       -2.94387  -0.00103   0.00249  -0.00976  -0.00720  -2.95107
    D5        1.27799  -0.00126  -0.00156   0.00076  -0.00088   1.27711
    D6       -0.80030   0.00286  -0.00206   0.02235   0.02030  -0.78001
    D7       -0.65692   0.00023  -0.00261   0.00511   0.00288  -0.65404
    D8        1.41046   0.00042  -0.00049   0.00499   0.00464   1.41510
    D9       -2.79837  -0.00068   0.00186  -0.00749  -0.00614  -2.80451
   D10       -1.03863   0.00070  -0.01108   0.02829   0.01737  -1.02126
   D11       -3.12993   0.00106  -0.01303   0.03087   0.01797  -3.11196
   D12        1.04452  -0.00306  -0.00719  -0.00663  -0.01411   1.03041
   D13        2.49998   0.00249   0.01248   0.06965   0.08194   2.58192
   D14        0.46808  -0.00094   0.01092   0.04571   0.05732   0.52539
   D15       -1.71113   0.00450   0.00824   0.12713   0.13487  -1.57626
   D16       -2.71664  -0.00343  -0.01009  -0.15566  -0.16521  -2.88185
   D17       -0.67607  -0.00238   0.00317  -0.18047  -0.17711  -0.85318
   D18        1.52774  -0.00549  -0.01536  -0.17342  -0.18830   1.33944
   D19       -0.67669  -0.00059  -0.01312  -0.09615  -0.10908  -0.78577
   D20        1.36387   0.00045   0.00014  -0.12096  -0.12098   1.24289
   D21       -2.71551  -0.00265  -0.01839  -0.11390  -0.13216  -2.84767
   D22        1.37065   0.00183  -0.01083  -0.07548  -0.08662   1.28402
   D23       -2.87197   0.00288   0.00244  -0.10029  -0.09852  -2.97050
   D24       -0.66817  -0.00023  -0.01609  -0.09323  -0.10971  -0.77787
   D25       -0.95788   0.00065  -0.00083   0.00632   0.00594  -0.95194
   D26       -3.02899   0.00034  -0.00576  -0.00222  -0.00788  -3.03686
   D27        1.21462  -0.00154  -0.00609  -0.01722  -0.02386   1.19076
         Item               Value     Threshold  Converged?
 Maximum Force            0.012337     0.000450     NO 
 RMS     Force            0.003757     0.000300     NO 
 Maximum Displacement     0.406457     0.001800     NO 
 RMS     Displacement     0.129668     0.001200     NO 
 Predicted change in Energy=-3.007933D-03
 GradGradGradGradGradGradGradGradGradGradGradGradGradGradGradGradGradGrad

                          Input orientation:                          
 ---------------------------------------------------------------------
 Center     Atomic      Atomic             Coordinates (Angstroms)
 Number     Number       Type             X           Y           Z
 ---------------------------------------------------------------------
      1         14           0       -0.003766    0.006256   -0.018989
      2          8           0        1.621019   -0.052838   -0.096387
      3          1           0        2.081115    0.776238   -0.091709
      4          8           0       -0.501005    1.225038   -0.977409
      5          1           0       -1.410432    1.485478   -0.913592
      6          8           0       -0.540080   -1.472357   -0.481849
      7          1           0       -0.072368   -1.912046   -1.179408
      8          8           0       -0.609876    0.277241    1.455111
      9          6           0       -0.399087   -0.521151    2.615628
     10          1           0       -0.413074    0.145762    3.478564
     11          1           0        0.580674   -0.997301    2.560458
     12          6           0       -1.437057   -1.602904    2.772076
     13          1           0       -1.375476   -1.988988    3.788179
     14          1           0       -2.416015   -1.126491    2.647677
     15          8           0       -1.272000   -2.715547    1.928141
     16          1           0       -1.224473   -2.420792    1.024409
 ---------------------------------------------------------------------
                    Distance matrix (angstroms):
                    1          2          3          4          5
     1  Si   0.000000
     2  O    1.627701   0.000000
     3  H    2.223711   0.948197   0.000000
     4  O    1.628265   2.629097   2.766447   0.000000
     5  H    2.228703   3.496274   3.656421   0.948134   0.000000
     6  O    1.639564   2.614185   3.475494   2.742818   3.113310
     7  H    2.243025   2.738092   3.612126   3.172670   3.661180
     8  O    1.616717   2.737333   3.143738   2.612916   2.776956
     9  C    2.715813   3.413967   3.894135   3.996183   4.183870
    10  H    3.524184   4.117918   4.400605   4.585659   4.699000
    11  H    2.828824   3.005520   3.525727   4.315707   4.711445
    12  C    3.526154   4.470192   5.122413   4.788746   4.808634
    13  H    4.511886   5.274231   5.886258   5.814250   5.846348
    14  H    3.770036   4.998026   5.598999   4.726331   4.529483
    15  O    3.578819   4.422475   5.245544   4.956296   5.073777
    16  H    2.910218   3.867844   4.732191   4.221701   4.364558
                    6          7          8          9         10
     6  O    0.000000
     7  H    0.947982   0.000000
     8  O    2.611088   3.467360   0.000000
     9  C    3.243306   4.055075   1.424310   0.000000
    10  H    4.280106   5.103661   2.037248   1.090700   0.000000
    11  H    3.276797   3.905102   2.064863   1.090731   1.771171
    12  C    3.377815   4.191917   2.439993   1.507332   2.146043
    13  H    4.381544   5.136237   3.341428   2.117253   2.362041
    14  H    3.665063   4.555915   2.579693   2.106054   2.514115
    15  O    2.808786   3.426600   3.101442   2.459673   3.365806
    16  H    1.907022   2.538302   2.800467   2.611873   3.642588
                   11         12         13         14         15
    11  H    0.000000
    12  C    2.117257   0.000000
    13  H    2.513417   1.088724   0.000000
    14  H    3.000741   1.095811   1.768436   0.000000
    15  O    2.604725   1.406216   1.999584   2.086049   0.000000
    16  H    2.764839   1.941255   2.801372   2.393739   0.951773
                   16
    16  H    0.000000
 Stoichiometry    C2H8O5Si
 Framework group  C1[X(C2H8O5Si)]
 Deg. of freedom    42
 Full point group                 C1      NOp   1
 Largest Abelian subgroup         C1      NOp   1
 Largest concise Abelian subgroup C1      NOp   1
                         Standard orientation:                         
 ---------------------------------------------------------------------
 Center     Atomic      Atomic             Coordinates (Angstroms)
 Number     Number       Type             X           Y           Z
 ---------------------------------------------------------------------
      1         14           0       -1.033782    0.034597   -0.027378
      2          8           0       -1.646749   -0.088495    1.475463
      3          1           0       -2.268735   -0.787497    1.629108
      4          8           0       -2.247690   -0.228533   -1.080200
      5          1           0       -2.015127   -0.346567   -1.991759
      6          8           0       -0.368214    1.529382   -0.131331
      7          1           0       -0.817100    2.242570    0.302873
      8          8           0        0.141018   -1.019811   -0.376437
      9          6           0        1.377321   -1.167415    0.315247
     10          1           0        1.660326   -2.219242    0.258737
     11          1           0        1.245253   -0.899109    1.364182
     12          6           0        2.469076   -0.299241   -0.256063
     13          1           0        3.422717   -0.651594    0.133470
     14          1           0        2.466024   -0.454816   -1.340770
     15          8           0        2.392504    1.061617    0.089834
     16          1           0        1.534258    1.398562   -0.146288
 ---------------------------------------------------------------------
 Rotational constants (GHZ):           2.9164698           1.1300323           1.0459253
 Standard basis: def2TZVPP (5D, 7F)
 There are   420 symmetry adapted cartesian basis functions of A   symmetry.
 There are   371 symmetry adapted basis functions of A   symmetry.
   371 basis functions,   562 primitive gaussians,   420 cartesian basis functions
    37 alpha electrons       37 beta electrons
       nuclear repulsion energy       529.5296537760 Hartrees.
 NAtoms=   16 NActive=   16 NUniq=   16 SFac= 1.00D+00 NAtFMM=   60 NAOKFM=F Big=F
 Integral buffers will be    131072 words long.
 Raffenetti 2 integral format.
 Two-electron integral symmetry is turned on.
 Nuclear repulsion after empirical dispersion term =      529.5220575948 Hartrees.
 One-electron integrals computed using PRISM.
   1 Symmetry operations used in ECPInt.
 ECPInt:  NShTT=    9730 NPrTT=   27009 LenC2=    9373 LenP2D=   20642.
 LDataN:  DoStor=T MaxTD1= 6 Len=  172
 NBasis=   371 RedAO= T EigKep=  2.79D-04  NBF=   371
 NBsUse=   371 1.00D-06 EigRej= -1.00D+00 NBFU=   371
 Initial guess from the checkpoint file:  "QLConformer7Opt.chk"
 B after Tr=    -0.000000   -0.000000   -0.000000
         Rot=    0.999332    0.036484    0.000495   -0.002074 Ang=   4.19 deg.
 ExpMin= 7.01D-02 ExpMax= 4.48D+04 ExpMxC= 1.53D+03 IAcc=3 IRadAn=         5 AccDes= 0.00D+00
 Harris functional with IExCor= 4639 and IRadAn=       5 diagonalized for initial guess.
 HarFok:  IExCor= 4639 AccDes= 0.00D+00 IRadAn=         5 IDoV= 1 UseB2=F ITyADJ=14
 ICtDFT=  3500011 ScaDFX=  1.000000  1.000000  1.000000  1.000000
 FoFCou: FMM=F IPFlag=           0 FMFlag=      100000 FMFlg1=           0
         NFxFlg=           0 DoJE=T BraDBF=F KetDBF=T FulRan=T
         wScrn=  0.000000 ICntrl=       500 IOpCl=  0 I1Cent=   200000004 NGrid=           0
         NMat0=    1 NMatS0=      1 NMatT0=    0 NMatD0=    1 NMtDS0=    0 NMtDT0=    0
 Petite list used in FoFCou.
 Requested convergence on RMS density matrix=1.00D-08 within 128 cycles.
 Requested convergence on MAX density matrix=1.00D-06.
 Requested convergence on             energy=1.00D-06.
 No special actions if energy rises.
 Integral accuracy reduced to 1.0D-05 until final iterations.
 Initial convergence to 1.0D-05 achieved.  Increase integral accuracy.
 SCF Done:  E(RwB97XD) =  -746.916837166     A.U. after   12 cycles
            NFock= 12  Conv=0.49D-08     -V/T= 2.0032
   1 Symmetry operations used in ECPInt.
 ECPInt:  NShTT=    9730 NPrTT=   27009 LenC2=    9373 LenP2D=   20642.
 LDataN:  DoStor=T MaxTD1= 7 Len=  274
 Calling FoFJK, ICntrl=      2127 FMM=F ISym2X=0 I1Cent= 0 IOpClX= 0 NMat=1 NMatS=1 NMatT=0.
 ***** Axes restored to original set *****
 -------------------------------------------------------------------
 Center     Atomic                   Forces (Hartrees/Bohr)
 Number     Number              X              Y              Z
 -------------------------------------------------------------------
      1       14           0.000298866    0.001910612   -0.000492264
      2        8          -0.003653197   -0.005291755   -0.000335456
      3        1           0.004246762    0.005594034   -0.000199125
      4        8           0.006217570   -0.003528765   -0.000450597
      5        1          -0.006322363    0.002799222    0.000304609
      6        8          -0.002937030    0.004321191    0.002393666
      7        1           0.003346664   -0.003790558   -0.005493162
      8        8          -0.002013377   -0.001070281    0.002959220
      9        6           0.006894428   -0.001342251   -0.004682029
     10        1          -0.001351170    0.000373915   -0.000365406
     11        1           0.003757460    0.000679089    0.001647741
     12        6          -0.004853025   -0.000984912    0.000890338
     13        1          -0.000578931    0.000316986    0.002169527
     14        1          -0.003016135   -0.002588297   -0.000180412
     15        8          -0.001094948   -0.000782689    0.011959452
     16        1           0.001058423    0.003384460   -0.010126102
 -------------------------------------------------------------------
 Cartesian Forces:  Max     0.011959452 RMS     0.003801430

 GradGradGradGradGradGradGradGradGradGradGradGradGradGradGradGradGradGrad
 Berny optimization.
 Using GEDIIS/GDIIS optimizer.
 FormGI is forming the generalized inverse of G from B-inverse, IUseBI=4.
 Internal  Forces:  Max     0.011910699 RMS     0.003184560
 Search for a local minimum.
 Step number   3 out of a maximum of   75
 All quantities printed in internal units (Hartrees-Bohrs-Radians)
 Mixed Optimization -- RFO/linear search
 Update second derivatives using D2CorX and points    1    2    3
 DE= -1.95D-03 DEPred=-3.01D-03 R= 6.47D-01
 TightC=F SS=  1.41D+00  RLast= 4.67D-01 DXNew= 8.4853D-01 1.3998D+00
 Trust test= 6.47D-01 RLast= 4.67D-01 DXMaxT set to 8.49D-01
 ITU=  1  1  0
 Use linear search instead of GDIIS.
     Eigenvalues ---    0.00420   0.01350   0.01438   0.03630   0.03747
     Eigenvalues ---    0.03818   0.03832   0.04824   0.05640   0.05930
     Eigenvalues ---    0.06252   0.10322   0.11623   0.11903   0.12203
     Eigenvalues ---    0.12294   0.13003   0.13996   0.14789   0.16000
     Eigenvalues ---    0.16010   0.16218   0.17655   0.21337   0.22270
     Eigenvalues ---    0.23928   0.28971   0.33398   0.34076   0.34171
     Eigenvalues ---    0.34322   0.34549   0.40503   0.42669   0.43445
     Eigenvalues ---    0.44074   0.44442   0.47060   0.52255   0.53395
     Eigenvalues ---    0.53598   0.59997
 RFO step:  Lambda=-1.35247078D-03 EMin= 4.19783946D-03
 Quartic linear search produced a step of -0.24916.
 Iteration  1 RMS(Cart)=  0.04776251 RMS(Int)=  0.00069038
 Iteration  2 RMS(Cart)=  0.00117649 RMS(Int)=  0.00004804
 Iteration  3 RMS(Cart)=  0.00000066 RMS(Int)=  0.00004804
 Variable       Old X    -DE/DX   Delta X   Delta X   Delta X     New X
                                 (Linear)    (Quad)   (Total)
    R1        3.07591   0.00061   0.00206  -0.00193   0.00013   3.07604
    R2        3.07697  -0.00043   0.00242  -0.00417  -0.00176   3.07522
    R3        3.09833   0.00026   0.00142  -0.00173  -0.00031   3.09802
    R4        3.05515   0.00401   0.00760  -0.00498   0.00262   3.05777
    R5        1.79183   0.00695   0.00370   0.00407   0.00777   1.79960
    R6        1.79171   0.00685   0.00378   0.00381   0.00759   1.79930
    R7        1.79143   0.00745   0.00426   0.00393   0.00819   1.79962
    R8        2.69156   0.00172   0.00380  -0.00353   0.00027   2.69183
    R9        2.06112  -0.00004   0.00112  -0.00172  -0.00061   2.06052
   R10        2.06118   0.00300   0.00090   0.00506   0.00596   2.06714
   R11        2.84844   0.00680   0.00638   0.00655   0.01293   2.86138
   R12        2.05739   0.00188   0.00076   0.00284   0.00360   2.06099
   R13        2.07078   0.00159  -0.00059   0.00420   0.00361   2.07439
   R14        2.65736  -0.00316   0.00529  -0.01336  -0.00807   2.64930
   R15        1.79859   0.01072   0.00491   0.00788   0.01279   1.81138
    A1        1.87970   0.00016   0.00233  -0.00631  -0.00403   1.87568
    A2        1.85496  -0.00066   0.00599  -0.01121  -0.00530   1.84966
    A3        2.00829  -0.00004  -0.00869   0.01529   0.00664   2.01493
    A4        1.99213  -0.00198  -0.01243   0.01107  -0.00138   1.99074
    A5        1.87208  -0.00071   0.00377  -0.00782  -0.00410   1.86797
    A6        1.86077   0.00314   0.00823   0.00030   0.00845   1.86923
    A7        2.04023   0.00181  -0.00707   0.01930   0.01223   2.05246
    A8        2.04755   0.00142  -0.00746   0.01813   0.01066   2.05822
    A9        2.05401   0.00084  -0.00890   0.01758   0.00868   2.06269
   A10        2.20617   0.01191  -0.00539   0.03923   0.03384   2.24001
   A11        1.87549  -0.00267  -0.00973  -0.01111  -0.02097   1.85452
   A12        1.91392  -0.00039   0.00782   0.00559   0.01334   1.92725
   A13        1.96594   0.00403   0.00632   0.00229   0.00851   1.97445
   A14        1.89490  -0.00028  -0.00391  -0.00053  -0.00436   1.89055
   A15        1.92609  -0.00342  -0.00838  -0.01308  -0.02151   1.90459
   A16        1.88653   0.00258   0.00678   0.01663   0.02346   1.90999
   A17        1.88853  -0.00038  -0.00036  -0.00315  -0.00350   1.88503
   A18        1.86648   0.00433   0.00662   0.01315   0.01980   1.88628
   A19        2.00945  -0.00217   0.00004  -0.00766  -0.00760   2.00184
   A20        1.88668  -0.00131  -0.00028  -0.00750  -0.00774   1.87894
   A21        1.84719   0.00101  -0.00437   0.00843   0.00405   1.85124
   A22        1.96138  -0.00159  -0.00197  -0.00394  -0.00586   1.95552
   A23        1.90782  -0.00004   0.00014  -0.00125  -0.00112   1.90670
    D1        0.71608   0.00052   0.00378  -0.00460  -0.00083   0.71525
    D2        2.85784  -0.00212  -0.00630  -0.00131  -0.00764   2.85020
    D3       -1.37040   0.00132   0.00284   0.00022   0.00310  -1.36730
    D4       -2.95107  -0.00021   0.00179   0.00014   0.00192  -2.94915
    D5        1.27711   0.00168   0.00022   0.01179   0.01203   1.28914
    D6       -0.78001  -0.00059  -0.00506   0.01015   0.00508  -0.77492
    D7       -0.65404   0.00086  -0.00072   0.00670   0.00587  -0.64817
    D8        1.41510  -0.00052  -0.00116  -0.00224  -0.00342   1.41168
    D9       -2.80451  -0.00044   0.00153  -0.00532  -0.00365  -2.80816
   D10       -1.02126   0.00084  -0.00433   0.03074   0.02635  -0.99491
   D11       -3.11196   0.00116  -0.00448   0.03479   0.03027  -3.08169
   D12        1.03041   0.00214   0.00352   0.02584   0.02946   1.05987
   D13        2.58192  -0.00056  -0.02042   0.01137  -0.00906   2.57286
   D14        0.52539   0.00151  -0.01428   0.01530   0.00097   0.52636
   D15       -1.57626  -0.00415  -0.03361  -0.01118  -0.04471  -1.62097
   D16       -2.88185   0.00250   0.04116  -0.07092  -0.02975  -2.91159
   D17       -0.85318   0.00302   0.04413  -0.07445  -0.03031  -0.88349
   D18        1.33944   0.00283   0.04692  -0.07461  -0.02771   1.31173
   D19       -0.78577  -0.00060   0.02718  -0.09266  -0.06541  -0.85119
   D20        1.24289  -0.00007   0.03014  -0.09618  -0.06598   1.17691
   D21       -2.84767  -0.00026   0.03293  -0.09634  -0.06338  -2.91105
   D22        1.28402  -0.00135   0.02158  -0.09082  -0.06928   1.21474
   D23       -2.97050  -0.00082   0.02455  -0.09435  -0.06985  -3.04034
   D24       -0.77787  -0.00101   0.02733  -0.09451  -0.06725  -0.84512
   D25       -0.95194  -0.00100  -0.00148   0.00765   0.00615  -0.94580
   D26       -3.03686   0.00004   0.00196   0.01023   0.01219  -3.02467
   D27        1.19076   0.00186   0.00594   0.01622   0.02219   1.21295
         Item               Value     Threshold  Converged?
 Maximum Force            0.011911     0.000450     NO 
 RMS     Force            0.003185     0.000300     NO 
 Maximum Displacement     0.155793     0.001800     NO 
 RMS     Displacement     0.047303     0.001200     NO 
 Predicted change in Energy=-8.051306D-04
 GradGradGradGradGradGradGradGradGradGradGradGradGradGradGradGradGradGrad

                          Input orientation:                          
 ---------------------------------------------------------------------
 Center     Atomic      Atomic             Coordinates (Angstroms)
 Number     Number       Type             X           Y           Z
 ---------------------------------------------------------------------
      1         14           0        0.009345    0.002126   -0.042845
      2          8           0        1.634663   -0.039880   -0.121663
      3          1           0        2.099094    0.791176   -0.098452
      4          8           0       -0.492993    1.239574   -0.972683
      5          1           0       -1.406091    1.502171   -0.910368
      6          8           0       -0.505317   -1.468645   -0.552341
      7          1           0       -0.030328   -1.890413   -1.261850
      8          8           0       -0.609277    0.237399    1.433708
      9          6           0       -0.402168   -0.535686    2.612060
     10          1           0       -0.446711    0.163492    3.447579
     11          1           0        0.591504   -0.992880    2.598897
     12          6           0       -1.449211   -1.611592    2.809172
     13          1           0       -1.357344   -1.988678    3.828405
     14          1           0       -2.438541   -1.145475    2.714549
     15          8           0       -1.309867   -2.725441    1.969303
     16          1           0       -1.278656   -2.431645    1.057431
 ---------------------------------------------------------------------
                    Distance matrix (angstroms):
                    1          2          3          4          5
     1  Si   0.000000
     2  O    1.627770   0.000000
     3  H    2.234445   0.952308   0.000000
     4  O    1.627336   2.624530   2.772050   0.000000
     5  H    2.237452   3.499451   3.667567   0.952149   0.000000
     6  O    1.639400   2.608902   3.477897   2.740673   3.124952
     7  H    2.251500   2.738009   3.616470   3.177184   3.677756
     8  O    1.618101   2.744327   3.160610   2.609328   2.780153
     9  C    2.739909   3.444960   3.919662   4.001272   4.191446
    10  H    3.523788   4.136783   4.410153   4.549595   4.658774
    11  H    2.882316   3.065590   3.568106   4.349273   4.746642
    12  C    3.586847   4.535455   5.178614   4.831763   4.851016
    13  H    4.562642   5.324749   5.924083   5.849714   5.885947
    14  H    3.861651   5.085020   5.679236   4.803050   4.606083
    15  O    3.637125   4.500515   5.316317   5.004389   5.116099
    16  H    2.965264   3.949460   4.809557   4.268077   4.400384
                    6          7          8          9         10
     6  O    0.000000
     7  H    0.952316   0.000000
     8  O    2.620264   3.482642   0.000000
     9  C    3.300680   4.120768   1.424454   0.000000
    10  H    4.320494   5.154670   2.021774   1.090379   0.000000
    11  H    3.370412   4.012183   2.076807   1.093884   1.770691
    12  C    3.494444   4.320207   2.452786   1.514175   2.136233
    13  H    4.493030   5.261304   3.354042   2.122037   2.367723
    14  H    3.809772   4.708096   2.626614   2.128182   2.493614
    15  O    2.930107   3.574191   3.091296   2.456030   3.358016
    16  H    2.028987   2.688925   2.777310   2.603798   3.624869
                   11         12         13         14         15
    11  H    0.000000
    12  C    2.142787   0.000000
    13  H    2.510240   1.090628   0.000000
    14  H    3.036088   1.097721   1.766537   0.000000
    15  O    2.648276   1.401947   2.000334   2.079805   0.000000
    16  H    2.818450   1.941693   2.807260   2.397000   0.958541
                   16
    16  H    0.000000
 Stoichiometry    C2H8O5Si
 Framework group  C1[X(C2H8O5Si)]
 Deg. of freedom    42
 Full point group                 C1      NOp   1
 Largest Abelian subgroup         C1      NOp   1
 Largest concise Abelian subgroup C1      NOp   1
[...]
     1         -0.36960528          3.19330400         -2.91371409
     8         -0.97419235         -2.81859459         -0.30247943
     6         -0.17840671         -4.69204447         -2.04973601
     1         -0.43742208         -6.51765333         -1.12396801
     1          1.82845032         -4.45928080         -2.48728691
     6         -1.70089006         -4.63505545         -4.47627491
     1         -1.29144413         -6.35914995         -5.53291537
     1         -3.71824585         -4.65330239         -3.99713306
     8         -1.09459981         -2.60575944         -6.07531845
     1         -1.40063785         -1.04387312         -5.19480004

 Electric dipole moment (dipole orientation):
 (Debye = 10**-18 statcoulomb cm , SI units = C m)
                  (au)            (Debye)         (10**-30 SI)
   Tot        0.907465D+00      0.230655D+01      0.769381D+01
   x          0.000000D+00      0.000000D+00      0.000000D+00
   y          0.000000D+00      0.000000D+00      0.000000D+00
   z          0.907465D+00      0.230655D+01      0.769381D+01

 Dipole polarizability, Alpha (dipole orientation).
 (esu units = cm**3 , SI units = C**2 m**2 J**-1)
 Alpha(0;0):
               (au)            (10**-24 esu)      (10**-40 SI)
   iso        0.630871D+02      0.934855D+01      0.104017D+02
   aniso      0.120604D+02      0.178717D+01      0.198849D+01
   xx         0.581231D+02      0.861295D+01      0.958320D+01
   yx         0.171896D+01      0.254724D+00      0.283418D+00
   yy         0.669143D+02      0.991568D+01      0.110327D+02
   zx         0.158378D+01      0.234692D+00      0.261130D+00
   zy         0.476767D+01      0.706496D+00      0.786083D+00
   zz         0.642240D+02      0.951701D+01      0.105891D+02

 ----------------------------------------------------------------------
 Unable to Open any file for archive entry.
 1\1\GINC-CDR1901\Freq\RwB97XD\def2TZVPP\C2H8O5Si1\ARHENDER\19-Sep-2023
 \0\\#N Geom=AllCheck Guess=TCheck SCRF=Check GenChk RwB97XD/def2TZVPP 
 Freq\\Monodendate QL Conformer 7 Opt\\0,1\Si,-0.0339237121,-0.02085263
 59,-0.0460816236\O,1.5855980387,-0.1831251556,-0.0877077\H,2.111463298
 4,0.6127834176,-0.1042365341\O,-0.4295511265,1.2521080068,-0.980511133
 3\H,-1.2758443729,1.6675903522,-0.8345714791\O,-0.6523798637,-1.442502
 0146,-0.581892032\H,-0.2170860418,-1.8677405191,-1.3174003893\O,-0.666
 773087,0.2398518696,1.4191358622\C,-0.4504748868,-0.463684484,2.632946
 1715\H,-0.6182715339,0.248068195,3.4437045038\H,0.5839423693,-0.814976
 6808,2.6892130078\C,-1.3945354229,-1.639139592,2.7938546712\H,-1.33030
 57893,-1.9882962388,3.8263002709\H,-2.4213453995,-1.2924351282,2.62216
 45448\O,-1.0767141349,-2.7379365065,1.9791427293\H,-1.1056983351,-2.46
 41128855,1.0568391297\\Version=ES64L-G16RevC.01\State=1-A\HF=-746.9180
 262\RMSD=3.999e-09\RMSF=1.847e-05\ZeroPoint=0.1219601\Thermal=0.132473
 5\ETot=-746.7855527\HTot=-746.7846085\GTot=-746.8320592\Dipole=0.10616
 26,0.8785432,-0.2009586\DipoleDeriv=2.1362196,0.1890145,-0.2579539,-0.
 0697306,2.1710221,-0.0262513,-0.0974963,-0.3054176,2.4285915,-1.263738
 7,-0.0865291,0.1110334,0.0234322,-0.5609662,0.0015365,0.0605718,0.0352
 206,-0.7161035,0.3838763,-0.0061332,-0.018776,-0.00061,0.2241074,-0.01
 48852,-0.0095095,-0.0158267,0.3150864,-0.6631063,0.1210407,-0.1271865,
 0.1624913,-1.0773973,0.3129628,-0.1398275,0.3221188,-0.8962536,0.23757
 45,-0.0244272,0.0639659,-0.0092196,0.3642251,-0.0481545,0.044032,-0.04
 10442,0.3378495,-0.6571623,-0.1963552,-0.0693882,-0.174177,-1.0846951,
 -0.1417796,-0.047584,-0.0928042,-0.8936427,0.2839905,0.0104457,0.05188
 2,0.0134881,0.3378504,0.0302643,0.0534768,0.0351151,0.2860595,-0.64768
 59,-0.0286209,0.2243477,-0.0214115,-0.7466549,0.2628984,0.2276596,0.40
 6746,-1.7557471,0.2405747,-0.0824686,0.0439064,0.0175486,0.3798915,-0.
 3758156,-0.0698434,-0.266385,0.9577852,0.0572741,0.0222156,0.0409252,0
 .0008369,-0.0577265,-0.102154,0.0214561,-0.0495554,-0.129423,-0.111126
 1,0.037094,-0.0529906,0.0426496,0.0137053,0.0580601,0.0343144,0.032448
 7,-0.0045651,0.3441459,-0.1027194,-0.0412671,-0.0964775,0.5450976,0.27
 93314,-0.060602,0.2521255,0.4347998,0.0588844,0.005003,-0.0237734,-0.0
 129744,0.0086954,0.0751581,0.0106717,0.0287064,-0.1492421,-0.1670225,0
 .0713525,0.0145407,0.0780681,-0.0387245,-0.0400392,-0.0565268,-0.01727
 56,0.0313819,-0.5278698,-0.0146457,0.1039244,-0.0370928,-0.7578036,-0.
 2010531,0.1057085,-0.2652355,-0.7035349,0.2951717,0.0857333,-0.06319,0
 .0831786,0.2793733,-0.0700792,-0.0765013,-0.058937,0.4569583\Polar=59.
 0672294,1.8882753,61.9592085,-3.5371318,-3.2313998,68.2349104\Quadrupo
 le=1.1053077,-3.5583077,2.453,-0.5898556,0.2564456,3.4079846\PG=C01 [X
 (C2H8O5Si1)]\NImag=0\\0.52236260,-0.01330383,0.52984889,-0.03046795,-0
 .01312857,0.50523935,-0.27867111,0.02699267,0.00557678,0.51198464,-0.0
 0244312,-0.05157710,0.00005815,0.23549103,0.43715276,0.00788022,-0.002
 46440,-0.03972426,-0.01350236,-0.01092275,0.03209864,-0.02241267,-0.02
 310086,0.00081278,-0.18446244,-0.23495268,0.00562365,0.20422684,0.0077
 7246,0.00060756,-0.00106642,-0.26827328,-0.38856012,0.00866964,0.25645
 511,0.38957159,0.00049772,0.00010784,0.00095996,0.00676488,0.00933859,
 -0.00351975,-0.00661335,-0.00784444,0.00314722,-0.06947900,0.06472347,
 -0.04259138,-0.01553133,0.01930341,-0.01286514,0.00375963,0.00117736,0
 .00071809,0.50215254,0.04584009,-0.19000514,0.11173308,0.01166942,-0.0
 0345613,0.00690745,-0.00033123,-0.00214577,0.00022749,-0.28526986,0.33
 192797,-0.02577078,0.10031288,-0.11247257,-0.00306553,0.00294417,0.004
 78293,0.00082137,0.00057306,-0.00115934,-0.03538361,-0.09923589,0.1499
 6529,-0.00635043,0.00028268,0.00283312,0.00069765,0.00120369,-0.000661
 13,0.00027889,0.00013412,0.00030858,-0.43795878,0.22678724,0.06381693,
 0.44427236,0.02093371,-0.01334134,0.00077934,-0.00029245,0.00070628,0.
 00089511,0.00051886,-0.00006171,0.00023358,0.20606542,-0.11679455,-0.0
 2348125,-0.22410218,0.12894971,-0.01551163,0.01288464,-0.00125450,-0.0
 0225735,0.00287066,-0.00071104,0.00045837,0.00007076,0.00009840,0.0853
 7159,-0.03762254,-0.02130205,-0.07005904,0.02377373,0.02340701,-0.0716
 3261,-0.05734106,-0.01417893,-0.01830841,-0.02323862,-0.00559759,-0.00
 213165,0.00074963,-0.00276269,0.00946068,0.00150346,-0.00002251,-0.000
 73640,-0.00197946,-0.00017447,0.19977479,-0.07940830,-0.20916793,-0.05
 805347,-0.01156021,-0.00393746,-0.00315784,-0.00000715,0.00169964,-0.0
 0118662,-0.00224301,-0.02294073,-0.00081108,-0.00283770,-0.00026627,-0
 .00014769,-0.01981871,0.37255833,-0.02857676,-0.08053495,-0.07571860,-
 0.00330985,-0.00377687,0.00638608,-0.00030937,0.00023501,0.00118706,-0
 .00127988,0.00696724,0.00860766,0.00059805,0.00101677,-0.00080610,-0.1
 6669224,0.27665281,0.41148264,0.00354122,-0.00983348,-0.00894108,-0.00
 154699,0.00096516,0.00092498,-0.00014632,0.00006304,0.00040238,-0.0007
 7787,-0.00073007,-0.00037507,-0.00000316,0.00005991,0.00015688,-0.1225
 9516,0.11509663,0.20119131,0.12080505,0.00901432,-0.01461177,-0.020881
 85,0.00182869,0.00150064,0.00191546,-0.00005706,-0.00010945,0.00041969
 ,-0.00167347,0.00025030,0.00164082,0.00024373,0.00018589,0.00002704,0.
 09540964,-0.12611430,-0.18226457,-0.10343299,0.13805081,0.00498647,-0.
 00381089,-0.00706225,0.00210891,0.00239130,0.00030280,0.00004270,0.000
 17858,0.00059394,0.00028943,0.00255702,-0.00116257,0.00009011,-0.00022
 517,0.00010662,0.18396368,-0.19868484,-0.32985977,-0.19179728,0.199992
 41,0.33737690,-0.07280731,0.01872655,0.07868884,-0.01323813,0.00284411
 ,0.01787503,0.00070728,0.00194967,0.00055724,0.00669761,-0.00017096,-0
 .00206084,-0.00025737,-0.00081456,0.00173949,0.00703876,-0.00045066,-0
 .00221118,0.00078645,-0.00107671,-0.00035703,0.12660093,0.01435016,-0.
 04645001,-0.01936950,0.00107965,0.00865144,0.00036067,0.00184605,-0.00
 084079,-0.00141905,-0.00274958,0.00064828,0.01885881,-0.00179331,0.001
 05593,-0.00203541,0.00449413,-0.00516168,-0.01955607,-0.00255034,0.000
 03163,-0.00209247,-0.03597325,0.14896568,0.08585378,-0.02630647,-0.239
 90119,0.01374727,-0.00256811,-0.00304573,-0.00148344,-0.00120941,-0.00
 152235,0.00504313,0.01090372,-0.03022838,0.00353294,-0.00357281,0.0010
 8929,0.00468760,-0.01943572,-0.01592888,-0.00209827,-0.00036304,0.0004
 7562,-0.06960073,-0.08390080,0.55156635,-0.00074116,-0.00583325,0.0062
 1534,-0.00295091,0.00139851,0.00004954,0.00026082,-0.00008623,0.000282
 43,0.00152128,-0.00004795,0.00281578,-0.00014615,-0.00027076,0.0001744
 9,-0.00067769,0.00076973,0.00064253,0.00021795,-0.00006979,0.00030475,
 -0.07083933,0.01919253,-0.02645291,0.57282666,-0.00506868,0.00159521,0
 .00248247,0.00444890,-0.00095529,-0.00197808,-0.00045463,-0.00013513,-
 0.00024883,0.00104407,0.00267661,-0.00250421,0.00026433,-0.00063539,0.
 00041448,0.00076477,-0.00476246,-0.00342006,-0.00019959,-0.00042493,0.
 00011500,0.01518552,-0.09673846,0.07061279,-0.04733041,0.51711790,0.00
 972907,-0.00085083,-0.04425531,-0.00793279,0.00163414,0.00404108,0.001
 03876,0.00040851,0.00035113,-0.00004657,-0.00239858,0.00723038,-0.0008
 8545,0.00117607,-0.00131271,0.00038615,0.00706102,0.00520692,0.0005311
 4,-0.00061656,0.00033784,-0.02123015,0.06066915,-0.18150154,-0.0200326
 3,0.07232923,0.52057464,-0.00050943,0.00035338,-0.00104867,0.00009048,
 -0.00018297,0.00020802,0.00005018,0.00005628,0.00005572,0.00008265,0.0
 0002504,0.00000965,0.00002641,0.00000315,-0.00003486,0.00018507,-0.000
 03127,-0.00011269,-0.00003292,-0.00005193,-0.00008027,0.00436583,-0.00
 381128,-0.00649650,-0.06287526,0.02967413,0.03337775,0.05681275,0.0004
 1799,-0.00056947,0.00138897,-0.00019406,0.00016236,0.00001465,-0.00001
 668,0.00000428,0.00000155,-0.00012476,-0.00023438,0.00026943,-0.000007
 89,0.00004998,0.00001670,-0.00004165,0.00085682,0.00024038,0.00002528,
 0.00009426,0.00008122,-0.00234928,0.01212154,0.02326383,0.02792234,-0.
 17102853,-0.13397230,-0.03019259,0.18258088,-0.00307608,0.00023126,0.0
 0216892,0.00102412,-0.00005561,-0.00024699,-0.00010721,-0.00008767,-0.
 00007694,0.00021378,0.00090218,-0.00112071,0.00014673,-0.00026115,0.00
 009208,0.00021570,-0.00127435,-0.00115239,-0.00006969,-0.00011000,-0.0
 0003668,0.00288362,-0.00531640,-0.04172244,0.03039853,-0.12722704,-0.1
 7596874,-0.03221954,0.13180131,0.21146135,-0.00137707,0.00169903,0.001
 55251,0.00082687,-0.00043487,-0.00027012,-0.00004960,-0.00003833,-0.00
 005139,0.00009661,0.00013159,-0.00043892,0.00004319,-0.00010067,0.0000
 8549,0.00013639,-0.00051168,-0.00016459,-0.00003404,0.00000575,-0.0000
 4223,0.00203735,0.00262794,-0.00777478,-0.28214603,0.07503214,-0.00432
 933,-0.00284638,0.00026672,0.00053258,0.30386100,0.00363650,-0.0007239
 9,-0.00264927,-0.00107891,-0.00010940,-0.00051467,0.00000994,-0.000018
 40,0.00031935,-0.00043289,-0.00021864,0.00063048,-0.00008924,0.0001747
 7,-0.00020714,-0.00014643,0.00035464,0.00049676,0.00005462,0.00002606,
 -0.00001131,0.01372520,-0.00737266,0.01347916,0.07540134,-0.07531071,-
 0.00123050,0.02084468,-0.00482296,-0.00054290,-0.08376294,0.08092903,-
 0.00668272,0.00368834,0.00336826,0.00070164,-0.00067528,0.00071388,-0.
 00001453,0.00010299,0.00002756,0.00088535,0.00008526,-0.00098580,0.000
 13859,-0.00028910,0.00034902,0.00052821,-0.00082673,-0.00025610,-0.000
 05353,-0.00006324,-0.00011389,-0.03031507,0.01861124,-0.01863067,0.001
 93995,-0.00403718,-0.05121995,0.02176114,-0.00578314,0.00242498,0.0087
 5959,-0.00947803,0.06175316,-0.00062752,-0.00139621,0.00304420,0.00064
 108,0.00017001,0.00003007,-0.00008489,-0.00001923,-0.00007015,-0.00034
 338,0.00057137,-0.00088505,0.00028761,-0.00001267,0.00002404,-0.000007
 50,0.00070743,-0.00122044,-0.00010888,0.00003822,0.00001809,0.00686690
 ,0.00544188,-0.00299218,-0.14322752,-0.05653078,0.01321251,0.00549872,
 0.00963467,-0.00005141,-0.02287530,-0.02748654,0.00321805,0.55342519,0
 .00038516,0.00606754,0.00562287,-0.00055453,-0.00090028,-0.00134332,-0
 .00012755,-0.00003885,0.00023384,0.00020659,-0.00089238,-0.00081835,-0
 .00005234,-0.00003683,0.00029587,-0.00148645,-0.00584690,0.00233630,0.
 00007631,0.00002940,-0.00051367,-0.00904181,-0.01657332,0.00814550,-0.
 05754080,-0.13643700,0.01577324,-0.01361789,-0.01366500,0.00071436,0.0
 0787501,0.00753840,-0.00320449,-0.03549616,0.49101029,-0.00034788,0.01
 135013,0.00682933,0.00072105,-0.00154406,-0.00101713,-0.00023950,-0.00
 001454,0.00005968,-0.00020060,-0.00074462,-0.00262499,0.00021448,-0.00
 006560,0.00034718,-0.00104019,-0.00294629,0.00147736,-0.00008214,-0.00
 024622,-0.00007982,0.02363192,0.03667870,-0.02922722,0.00188290,-0.002
 93968,-0.07548877,-0.01563476,-0.01839890,0.00216356,0.00188383,-0.000
 79449,0.00207591,0.02337076,-0.04112811,0.61097393,0.00030469,-0.00071
 759,-0.00101237,-0.00018115,0.00008276,0.00002615,0.00003872,0.0000010
 3,0.00001613,0.00005439,-0.00005715,0.00043291,-0.00007715,0.00000671,
 -0.00003473,0.00001983,0.00002171,0.00021268,0.00001437,-0.00000125,0.
 00002938,-0.00202031,-0.00422302,0.00290351,0.00247502,-0.00656552,0.0
 1951187,0.00098090,0.00047553,-0.00047269,0.00002128,0.00093552,-0.000
 12156,-0.05479792,0.00621570,-0.02099039,0.05110542,0.00075349,-0.0019
 1162,-0.00274530,-0.00043968,0.00029670,0.00032175,0.00010261,0.000021
 29,0.00000089,0.00002477,-0.00002129,0.00077334,-0.00007729,0.00008478
 ,-0.00010522,0.00024693,0.00118596,-0.00019149,0.00000657,-0.00002052,
 0.00004967,-0.00534812,-0.00497062,0.00462070,0.00619434,-0.00542991,0
 .02200318,0.00071053,-0.00035852,-0.00001314,-0.00044036,0.00077525,-0
 .00055317,0.00419193,-0.08148275,0.09414323,-0.00708006,0.09309925,-0.
 00065049,-0.00088416,0.00058020,0.00032360,0.00010681,-0.00000458,-0.0
 0004441,-0.00001376,-0.00000340,-0.00001263,0.00026726,-0.00006812,0.0
 0002486,-0.00005533,0.00001889,0.00025918,0.00064869,-0.00058571,-0.00
 000413,0.00004009,0.00004234,0.00090272,0.00058335,0.00129215,-0.00187
 806,0.00171037,-0.00493831,0.00033605,0.00051171,0.00079146,0.00033113
 ,0.00000909,-0.00007254,-0.01675565,0.08528396,-0.27378823,0.01534779,
 -0.08450165,0.30783876,-0.00081098,0.00072750,0.00001885,0.00028512,-0
 .00020278,0.00008989,-0.00000806,0.00003011,-0.00005802,0.00017019,-0.
 00018992,0.00004666,-0.00008087,-0.00002661,0.00004918,0.00014652,-0.0
 0050033,0.00028303,-0.00001126,0.00004228,-0.00006813,0.00378014,0.001
 14402,0.00075666,-0.02411474,0.00602892,-0.00759269,-0.00003455,-0.000
 75550,-0.00008452,-0.00148811,-0.00355538,0.00024177,-0.26550977,0.062
 51980,-0.04432145,-0.00062537,-0.00038631,-0.00081216,0.29077082,-0.00
 053625,-0.00063696,-0.00009003,0.00026856,0.00006796,0.00023111,-0.000
 00453,0.00001010,-0.00005802,-0.00000007,0.00016055,-0.00004494,0.0000
 2373,-0.00001227,0.00001054,0.00009129,0.00065869,-0.00041629,0.000003
 01,-0.00001631,0.00007720,0.00200710,0.00195463,-0.00129922,-0.0273879
 5,0.00672662,-0.00375385,0.00105533,0.00106322,-0.00032788,-0.00351761
 ,-0.00398574,0.00137454,0.06405228,-0.06770694,0.01486246,0.01108324,-
 0.00180369,0.00319074,-0.07618873,0.08392144,0.00056736,-0.00042728,-0
 .00076536,-0.00015627,0.00007048,0.00008397,0.00002873,0.00001216,-0.0
 0001119,-0.00006052,-0.00004941,0.00019583,-0.00000878,0.00006201,-0.0
 0004333,-0.00015851,0.00035637,-0.00005272,0.00000048,-0.00004954,0.00
 000866,0.00017960,-0.00148648,0.00169961,0.00502253,0.00269907,0.00109
 336,-0.00016621,0.00024795,-0.00022694,0.00086588,0.00002295,0.0006951
 6,-0.04778709,0.01632096,-0.06326451,-0.02814010,0.00696921,-0.0040877
 6,0.04437324,-0.00790043,0.06187590,-0.00142600,0.00390357,-0.00075210
 ,0.00003501,-0.00073498,0.00020234,0.00007596,0.00006030,0.00004556,0.
 00039530,-0.00072928,0.00017171,-0.00016862,0.00000926,0.00002343,0.00
 208940,-0.00239481,0.00334449,0.00000965,0.00005561,-0.00045368,0.0014
 7840,0.00030395,-0.00064499,0.00901230,-0.01668537,-0.01376529,-0.0015
 5998,-0.00513144,0.00037591,0.00421880,0.00219531,-0.00083551,-0.07760
 731,0.04182318,0.01903537,0.00260071,0.00037378,0.00175422,-0.00273761
 ,0.02963613,0.02432205,0.07434036,0.00167945,-0.00185588,-0.00591856,-
 0.00075134,0.00047599,0.00101257,0.00022691,0.00004136,-0.00013737,-0.
 00008843,-0.00002129,0.00122342,-0.00011423,0.00014272,-0.00034780,-0.
 00056031,0.00416943,0.00466684,-0.00004712,-0.00156356,0.00093442,0.00
 000039,0.00321724,0.00473536,0.00850398,-0.03677505,-0.03357311,-0.004
 79135,-0.00621058,0.00099901,0.00129177,0.00291151,0.00088328,0.036978
 60,-0.18781372,-0.04819271,-0.00145761,0.00504321,-0.00302096,0.010365
 98,-0.02030106,-0.01672333,-0.06811301,0.32891090,-0.00136316,-0.01121
 280,-0.00821852,0.00109753,0.00155516,0.00133526,0.00006007,-0.0000259
 0,-0.00012967,-0.00008672,0.00196782,0.00120889,0.00007897,-0.00010920
 ,-0.00027807,0.00371315,0.00952475,-0.00678098,-0.00018720,0.00129276,
 0.00048875,-0.00147198,-0.00038820,0.01088443,-0.00012537,-0.00764208,
 -0.00819814,-0.00041672,-0.00079684,0.00153953,-0.00067657,0.00072484,
 0.00018666,0.02697900,-0.09054392,-0.15135986,0.01090994,-0.03787534,-
 0.02772465,0.00755899,-0.00785979,0.00127682,-0.02220781,-0.02049651,0
 .65162941,0.00063677,-0.00588257,0.00025009,0.00032963,0.00073133,-0.0
 0001355,-0.00010268,-0.00003204,-0.00009313,-0.00030049,0.00099820,-0.
 00011270,0.00017284,0.00000233,-0.00001088,-0.00276202,0.00316833,-0.0
 0239509,-0.00011808,-0.00027502,0.00096509,-0.00119720,0.00062045,0.00
 101892,0.00140479,0.00039222,-0.00197237,-0.00023447,0.00007132,0.0002
 9018,-0.00042497,-0.00025077,-0.00015137,-0.00152950,-0.00118422,0.012
 11661,0.00008657,0.00116688,0.00087800,0.00026851,-0.00058554,0.001117
 61,-0.01075637,0.01687633,-0.02386212,0.01452670,-0.00402314,-0.007267
 99,0.00183810,0.00136555,0.00048165,0.00005264,-0.00010710,-0.00004560
 ,0.00001152,0.00003699,0.00106659,-0.00033068,0.00013467,-0.00020171,0
 .00010137,0.00135283,-0.00328577,-0.00245179,0.00044305,0.00269186,-0.
 00103848,0.00078681,0.00146117,0.00289453,-0.00081565,0.00051652,-0.00
 465881,-0.00004322,-0.00004391,0.00056800,-0.00012351,-0.00014717,0.00
 016472,-0.00084479,0.00674835,-0.04001929,0.00127999,-0.00450753,-0.00
 387621,0.00094694,-0.00010023,-0.00012470,0.01542782,-0.09037123,0.161
 88527,-0.01581724,0.09300500,0.00293283,0.01104525,0.01022653,-0.00184
 163,-0.00142677,-0.00147514,-0.00007462,0.00001144,-0.00000230,0.00000
 567,-0.00246747,-0.00086645,-0.00016894,0.00012300,0.00019931,-0.00312
 655,-0.00771902,-0.00320647,0.00040123,-0.00073326,-0.00141848,0.00078
 851,-0.00019754,-0.00529905,-0.00123980,-0.00036625,0.00404812,0.00046
 191,0.00111350,-0.00009005,-0.00026308,-0.00025430,-0.00031564,-0.0001
 3474,0.00282496,-0.02707642,0.00138147,-0.00289666,0.00070950,-0.00048
 129,0.00200387,0.00152252,-0.01061569,0.11395546,-0.46585986,0.0119747
 1,-0.11501618,0.48890388\\-0.00000767,-0.00003675,0.00001414,-0.000014
 04,0.00002756,0.00002369,-0.00000189,-0.00001568,-0.00001046,-0.000014
 11,0.00002743,-0.00000011,0.00000548,-0.00001093,-0.00000784,0.0000116
 6,0.00000938,0.00000245,-0.00001365,0.00001460,-0.00000557,0.00003443,
 -0.00002131,-0.00004082,-0.00002089,0.00000325,0.00004207,0.00000817,-
 0.00000407,-0.00000841,0.00000034,-0.00000407,-0.00000751,0.00000937,-
 0.00001323,-0.00000200,-0.00000479,-0.00001047,-0.00001095,0.00000293,
 0.00000659,-0.00000013,0.00000521,0.00004444,-0.00002885,-0.00000056,-
 0.00001675,0.00004032\\\@
 The archive entry for this job was punched.


 THERE ARE TWO THINGS THAT EVERYBODY THINKS THEY CAN DO BETTER THAN
 ANYONE ELSE - PUNCH THE FIRE, AND EDIT A DAILY PAPER.
 -- UNCLE ESEK, "CENTURY MAGAZINE", 1885
 Job cpu time:       0 days  1 hours 55 minutes 40.6 seconds.
 Elapsed time:       0 days  0 hours  7 minutes 19.7 seconds.
 File lengths (MBytes):  RWF=    194 Int=      0 D2E=      0 Chk=     12 Scr=      1
 Normal termination of Gaussian 16 at Tue Sep 19 21:21:47 2023.
