 Entering Gaussian System, Link 0=/opt/software/gaussian/g16.c01/g16
 Initial command:
 /opt/software/gaussian/g16.c01/l1.exe "/scratch/arhender/15829889/Gau-127234.inp" -scrdir="/scratch/arhender/15829889/"
 Entering Link 1 = /opt/software/gaussian/g16.c01/l1.exe PID=    127235.
  
 Copyright (c) 1988-2019, Gaussian, Inc.  All Rights Reserved.
  
 This is part of the Gaussian(R) 16 program.  It is based on
 the Gaussian(R) 09 system (copyright 2009, Gaussian, Inc.),
 the Gaussian(R) 03 system (copyright 2003, Gaussian, Inc.),
 the Gaussian(R) 98 system (copyright 1998, Gaussian, Inc.),
 the Gaussian(R) 94 system (copyright 1995, Gaussian, Inc.),
 the Gaussian 92(TM) system (copyright 1992, Gaussian, Inc.),
 the Gaussian 90(TM) system (copyright 1990, Gaussian, Inc.),
 the Gaussian 88(TM) system (copyright 1988, Gaussian, Inc.),
 the Gaussian 86(TM) system (copyright 1986, Carnegie Mellon
 University), and the Gaussian 82(TM) system (copyright 1983,
 Carnegie Mellon University). Gaussian is a federally registered
 trademark of Gaussian, Inc.
  
 This software contains proprietary and confidential information,
 including trade secrets, belonging to Gaussian, Inc.
  
 This software is provided under written license and may be
 used, copied, transmitted, or stored only in accord with that
 written license.
  
 The following legend is applicable only to US Government
 contracts under FAR:
  
                    RESTRICTED RIGHTS LEGEND
  
 Use, reproduction and disclosure by the US Government is
 subject to restrictions as set forth in subparagraphs (a)
 and (c) of the Commercial Computer Software - Restricted
 Rights clause in FAR 52.227-19.
  
 Gaussian, Inc.
 340 Quinnipiac St., Bldg. 40, Wallingford CT 06492
  
  
 ---------------------------------------------------------------
 Warning -- This program may not be used in any manner that
 competes with the business of Gaussian, Inc. or will provide
 assistance to any competitor of Gaussian, Inc.  The licensee
 of this program is prohibited from giving any competitor of
 Gaussian, Inc. access to this program.  By using this program,
 the user acknowledges that Gaussian, Inc. is engaged in the
 business of creating and licensing software in the field of
 computational chemistry and represents and warrants to the
 licensee that it is not a competitor of Gaussian, Inc. and that
 it will not use this program in any manner prohibited above.
 ---------------------------------------------------------------
  

 Cite this work as:
 Gaussian 16, Revision C.01,
 M. J. Frisch, G. W. Trucks, H. B. Schlegel, G. E. Scuseria, 
 M. A. Robb, J. R. Cheeseman, G. Scalmani, V. Barone, 
 G. A. Petersson, H. Nakatsuji, X. Li, M. Caricato, A. V. Marenich, 
 J. Bloino, B. G. Janesko, R. Gomperts, B. Mennucci, H. P. Hratchian, 
 J. V. Ortiz, A. F. Izmaylov, J. L. Sonnenberg, D. Williams-Young, 
 F. Ding, F. Lipparini, F. Egidi, J. Goings, B. Peng, A. Petrone, 
 T. Henderson, D. Ranasinghe, V. G. Zakrzewski, J. Gao, N. Rega, 
 G. Zheng, W. Liang, M. Hada, M. Ehara, K. Toyota, R. Fukuda, 
 J. Hasegawa, M. Ishida, T. Nakajima, Y. Honda, O. Kitao, H. Nakai, 
 T. Vreven, K. Throssell, J. A. Montgomery, Jr., J. E. Peralta, 
 F. Ogliaro, M. J. Bearpark, J. J. Heyd, E. N. Brothers, K. N. Kudin, 
 V. N. Staroverov, T. A. Keith, R. Kobayashi, J. Normand, 
 K. Raghavachari, A. P. Rendell, J. C. Burant, S. S. Iyengar, 
 J. Tomasi, M. Cossi, J. M. Millam, M. Klene, C. Adamo, R. Cammi, 
 J. W. Ochterski, R. L. Martin, K. Morokuma, O. Farkas, 
 J. B. Foresman, and D. J. Fox, Gaussian, Inc., Wallingford CT, 2019.
 
 ******************************************
 Gaussian 16:  ES64L-G16RevC.01  3-Jul-2019
                22-Jan-2024 
 ******************************************
 %chk=QBiL2_EG_20kmmx_confOpt_1.chk
 %mem=1600MB
 %nprocs=16
 Will use up to   16 processors via shared memory.
 ---------------------------------------------
 # opt freq wb97xd/Def2TZVPP geom=connectivity
 ---------------------------------------------
 1/18=20,19=15,26=3,38=1,57=2/1,3;
 2/9=110,12=2,17=6,18=5,40=1/2;
 3/5=44,7=202,11=2,25=1,30=1,71=1,74=-58/1,2,3;
 4//1;
 5/5=2,38=5/2;
 6/7=2,8=2,9=2,10=2,28=1/1;
 7//1,2,3,16;
 1/18=20,19=15,26=3/3(2);
 2/9=110/2;
 99//99;
 2/9=110/2;
 3/5=44,7=202,11=2,25=1,30=1,71=1,74=-58/1,2,3;
 4/5=5,16=3,69=1/1;
 5/5=2,38=5/2;
 7//1,2,3,16;
 1/18=20,19=15,26=3/3(-5);
 2/9=110/2;
 6/7=2,8=2,9=2,10=2,19=2,28=1/1;
 99/9=1/99;
 ---------------
 Q(=L)2 conf opt
 ---------------
 Symbolic Z-matrix:
 Charge =  0 Multiplicity = 1
 Si                    0.        0.        0. 
 O                     1.6306    0.        0. 
 O                    -0.6515   -0.4954   -1.4103 
 C                    -1.2099   -1.7631   -1.1181 
 H                    -0.4273   -2.5398   -1.295 
 H                    -2.0517   -1.9396   -1.8262 
 C                    -1.6634   -1.7138    0.3447 
 H                    -2.6075   -1.1325    0.4782 
 H                    -1.8039   -2.726     0.7885 
 C                     1.9862    1.3703    0. 
 H                     2.0625    1.7124   -1.0603 
 H                     2.9886    1.4655    0.4768 
 C                     0.8871    2.1065    0.7734 
 H                     0.9724    1.9599    1.8772 
 H                     0.867     3.2       0.561 
 O                    -0.6341   -1.0602    1.0643 
 O                    -0.345     1.5557    0.346 
 

 GradGradGradGradGradGradGradGradGradGradGradGradGradGradGradGradGradGrad
 Berny optimization.
 Initialization pass.
                           ----------------------------
                           !    Initial Parameters    !
                           ! (Angstroms and Degrees)  !
 --------------------------                            --------------------------
 ! Name  Definition              Value          Derivative Info.                !
 --------------------------------------------------------------------------------
 ! R1    R(1,2)                  1.6306         estimate D2E/DX2                !
 ! R2    R(1,3)                  1.6306         estimate D2E/DX2                !
 ! R3    R(1,16)                 1.6306         estimate D2E/DX2                !
 ! R4    R(1,17)                 1.6306         estimate D2E/DX2                !
 ! R5    R(2,10)                 1.4157         estimate D2E/DX2                !
 ! R6    R(3,4)                  1.4157         estimate D2E/DX2                !
 ! R7    R(4,5)                  1.1167         estimate D2E/DX2                !
 ! R8    R(4,6)                  1.1141         estimate D2E/DX2                !
 ! R9    R(4,7)                  1.5323         estimate D2E/DX2                !
 ! R10   R(7,8)                  1.1167         estimate D2E/DX2                !
 ! R11   R(7,9)                  1.1141         estimate D2E/DX2                !
 ! R12   R(7,16)                 1.4158         estimate D2E/DX2                !
 ! R13   R(10,11)                1.1167         estimate D2E/DX2                !
 ! R14   R(10,12)                1.1141         estimate D2E/DX2                !
 ! R15   R(10,13)                1.5324         estimate D2E/DX2                !
 ! R16   R(13,14)                1.1168         estimate D2E/DX2                !
 ! R17   R(13,15)                1.1141         estimate D2E/DX2                !
 ! R18   R(13,17)                1.4157         estimate D2E/DX2                !
 ! A1    A(2,1,3)              113.55           estimate D2E/DX2                !
 ! A2    A(2,1,16)             112.8846         estimate D2E/DX2                !
 ! A3    A(2,1,17)             102.2147         estimate D2E/DX2                !
 ! A4    A(3,1,16)             102.2169         estimate D2E/DX2                !
 ! A5    A(3,1,17)             112.8826         estimate D2E/DX2                !
 ! A6    A(16,1,17)            113.5496         estimate D2E/DX2                !
 ! A7    A(1,2,10)             104.5477         estimate D2E/DX2                !
 ! A8    A(1,3,4)              104.5445         estimate D2E/DX2                !
 ! A9    A(3,4,5)              108.282          estimate D2E/DX2                !
 ! A10   A(3,4,6)              107.9814         estimate D2E/DX2                !
 ! A11   A(3,4,7)              106.5568         estimate D2E/DX2                !
 ! A12   A(5,4,6)              108.5818         estimate D2E/DX2                !
 ! A13   A(5,4,7)              112.3972         estimate D2E/DX2                !
 ! A14   A(6,4,7)              112.8448         estimate D2E/DX2                !
 ! A15   A(4,7,8)              112.4012         estimate D2E/DX2                !
 ! A16   A(4,7,9)              112.8534         estimate D2E/DX2                !
 ! A17   A(4,7,16)             106.553          estimate D2E/DX2                !
 ! A18   A(8,7,9)              108.5838         estimate D2E/DX2                !
 ! A19   A(8,7,16)             108.2741         estimate D2E/DX2                !
 ! A20   A(9,7,16)             107.9772         estimate D2E/DX2                !
 ! A21   A(2,10,11)            108.2812         estimate D2E/DX2                !
 ! A22   A(2,10,12)            107.9817         estimate D2E/DX2                !
 ! A23   A(2,10,13)            106.5508         estimate D2E/DX2                !
 ! A24   A(11,10,12)           108.5839         estimate D2E/DX2                !
 ! A25   A(11,10,13)           112.3977         estimate D2E/DX2                !
 ! A26   A(12,10,13)           112.8483         estimate D2E/DX2                !
 ! A27   A(10,13,14)           112.3956         estimate D2E/DX2                !
 ! A28   A(10,13,15)           112.8464         estimate D2E/DX2                !
 ! A29   A(10,13,17)           106.5559         estimate D2E/DX2                !
 ! A30   A(14,13,15)           108.5816         estimate D2E/DX2                !
 ! A31   A(14,13,17)           108.2888         estimate D2E/DX2                !
 ! A32   A(15,13,17)           107.9758         estimate D2E/DX2                !
 ! A33   A(1,16,7)             104.5444         estimate D2E/DX2                !
 ! A34   A(1,17,13)            104.5436         estimate D2E/DX2                !
 ! D1    D(3,1,2,10)           109.355          estimate D2E/DX2                !
 ! D2    D(16,1,2,10)         -134.8894         estimate D2E/DX2                !
 ! D3    D(17,1,2,10)          -12.5389         estimate D2E/DX2                !
 ! D4    D(2,1,3,4)            109.3556         estimate D2E/DX2                !
 ! D5    D(16,1,3,4)           -12.5422         estimate D2E/DX2                !
 ! D6    D(17,1,3,4)          -134.893          estimate D2E/DX2                !
 ! D7    D(2,1,16,7)          -134.8892         estimate D2E/DX2                !
 ! D8    D(3,1,16,7)           -12.5369         estimate D2E/DX2                !
 ! D9    D(17,1,16,7)          109.3583         estimate D2E/DX2                !
 ! D10   D(2,1,17,13)          -12.5444         estimate D2E/DX2                !
 ! D11   D(3,1,17,13)         -134.8943         estimate D2E/DX2                !
 ! D12   D(16,1,17,13)         109.3518         estimate D2E/DX2                !
 ! D13   D(1,2,10,11)          -89.3474         estimate D2E/DX2                !
 ! D14   D(1,2,10,12)          153.2596         estimate D2E/DX2                !
 ! D15   D(1,2,10,13)           31.7709         estimate D2E/DX2                !
 ! D16   D(1,3,4,5)            -89.3478         estimate D2E/DX2                !
 ! D17   D(1,3,4,6)            153.2615         estimate D2E/DX2                !
 ! D18   D(1,3,4,7)             31.7737         estimate D2E/DX2                !
 ! D19   D(3,4,7,8)             75.854          estimate D2E/DX2                !
 ! D20   D(3,4,7,9)           -160.9305         estimate D2E/DX2                !
 ! D21   D(3,4,7,16)           -42.5922         estimate D2E/DX2                !
 ! D22   D(5,4,7,8)           -165.6901         estimate D2E/DX2                !
 ! D23   D(5,4,7,9)            -42.4746         estimate D2E/DX2                !
 ! D24   D(5,4,7,16)            75.8636         estimate D2E/DX2                !
 ! D25   D(6,4,7,8)            -42.487          estimate D2E/DX2                !
 ! D26   D(6,4,7,9)             80.7285         estimate D2E/DX2                !
 ! D27   D(6,4,7,16)          -160.9332         estimate D2E/DX2                !
 ! D28   D(4,7,16,1)            31.7684         estimate D2E/DX2                !
 ! D29   D(8,7,16,1)           -89.3514         estimate D2E/DX2                !
 ! D30   D(9,7,16,1)           153.262          estimate D2E/DX2                !
 ! D31   D(2,10,13,14)          75.8664         estimate D2E/DX2                !
 ! D32   D(2,10,13,15)        -160.9308         estimate D2E/DX2                !
 ! D33   D(2,10,13,17)         -42.5963         estimate D2E/DX2                !
 ! D34   D(11,10,13,14)       -165.6821         estimate D2E/DX2                !
 ! D35   D(11,10,13,15)        -42.4793         estimate D2E/DX2                !
 ! D36   D(11,10,13,17)         75.8551         estimate D2E/DX2                !
 ! D37   D(12,10,13,14)        -42.4731         estimate D2E/DX2                !
 ! D38   D(12,10,13,15)         80.7297         estimate D2E/DX2                !
 ! D39   D(12,10,13,17)       -160.9358         estimate D2E/DX2                !
 ! D40   D(10,13,17,1)          31.776          estimate D2E/DX2                !
 ! D41   D(14,13,17,1)         -89.3468         estimate D2E/DX2                !
 ! D42   D(15,13,17,1)         153.2621         estimate D2E/DX2                !
 --------------------------------------------------------------------------------
 Trust Radius=3.00D-01 FncErr=1.00D-07 GrdErr=1.00D-06 EigMax=2.50D+02 EigMin=1.00D-04
 Number of steps in this run=    102 maximum allowed number of steps=    102.
 GradGradGradGradGradGradGradGradGradGradGradGradGradGradGradGradGradGrad

                          Input orientation:                          
 ---------------------------------------------------------------------
 Center     Atomic      Atomic             Coordinates (Angstroms)
 Number     Number       Type             X           Y           Z
 ---------------------------------------------------------------------
      1         14           0        0.000000    0.000000    0.000000
      2          8           0        1.630600    0.000000    0.000000
      3          8           0       -0.651500   -0.495400   -1.410300
      4          6           0       -1.209900   -1.763100   -1.118100
      5          1           0       -0.427300   -2.539800   -1.295000
      6          1           0       -2.051700   -1.939600   -1.826200
      7          6           0       -1.663400   -1.713800    0.344700
      8          1           0       -2.607500   -1.132500    0.478200
      9          1           0       -1.803900   -2.726000    0.788500
     10          6           0        1.986200    1.370300    0.000000
     11          1           0        2.062500    1.712400   -1.060300
     12          1           0        2.988600    1.465500    0.476800
     13          6           0        0.887100    2.106500    0.773400
     14          1           0        0.972400    1.959900    1.877200
     15          1           0        0.867000    3.200000    0.561000
     16          8           0       -0.634100   -1.060200    1.064300
     17          8           0       -0.345000    1.555700    0.346000
 ---------------------------------------------------------------------
                    Distance matrix (angstroms):
                    1          2          3          4          5
     1  Si   0.000000
     2  O    1.630600   0.000000
     3  O    1.630589   2.728067   0.000000
     4  C    2.412991   3.525211   1.415717   0.000000
     5  H    2.882741   3.516043   2.059886   1.116700   0.000000
     6  H    3.362518   4.544930   2.054080   1.114085   1.811378
     7  C    2.413054   3.729124   2.363993   1.532278   2.213331
     8  H    2.882757   4.412791   2.792537   2.213395   3.142929
     9  H    3.362568   4.455177   3.337413   2.217011   2.504131
    10  C    2.413030   1.415688   3.525230   4.613393   4.773980
    11  H    2.882786   2.059876   3.516060   4.773997   4.933092
    12  H    3.362552   2.054067   4.544954   5.531272   5.554284
    13  C    2.412972   2.363955   3.729037   4.790510   5.253002
    14  H    2.882820   2.792546   4.412846   5.253093   5.680609
    15  H    3.362501   3.337335   4.455092   5.636067   6.169704
    16  O    1.630595   2.717651   2.538296   2.363997   2.792540
    17  O    1.630627   2.538290   2.717636   3.729085   4.412797
                    6          7          8          9         10
     6  H    0.000000
     7  C    2.216883   0.000000
     8  H    2.504113   1.116717   0.000000
     9  H    2.741621   1.114113   1.811436   0.000000
    10  C    5.531282   4.790623   5.253072   5.636157   0.000000
    11  H    5.554309   5.253114   5.680611   6.169806   1.116732
    12  H    6.504086   5.636178   6.169760   6.374471   1.114095
    13  C    5.636079   4.613407   4.773939   5.531253   1.532370
    14  H    6.169802   4.774104   4.933135   5.554347   2.213436
    15  H    6.374404   5.531287   5.554238   6.504071   2.217010
    16  O    3.337353   1.415795   2.059866   2.054115   3.729080
    17  O    4.455154   3.525310   3.516078   4.545014   2.364018
                   11         12         13         14         15
    11  H    0.000000
    12  H    1.811435   0.000000
    13  C    2.213444   2.217015   0.000000
    14  H    3.143005   2.504119   1.116755   0.000000
    15  H    2.504154   2.741672   1.114118   1.811447   0.000000
    16  O    4.412809   4.455140   3.525147   3.516056   4.544878
    17  O    2.792542   3.337384   1.415670   2.059974   2.053994
                   16         17
    16  O    0.000000
    17  O    2.728088   0.000000
 Stoichiometry    C4H8O4Si
 Framework group  C1[X(C4H8O4Si)]
 Deg. of freedom    45
 Full point group                 C1      NOp   1
 Largest Abelian subgroup         C1      NOp   1
 Largest concise Abelian subgroup C1      NOp   1
                         Standard orientation:                         
 ---------------------------------------------------------------------
 Center     Atomic      Atomic             Coordinates (Angstroms)
 Number     Number       Type             X           Y           Z
 ---------------------------------------------------------------------
      1         14           0       -0.000002    0.000002    0.000001
      2          8           0        1.023798    0.893459   -0.901343
      3          8           0       -1.023772    0.893442    0.901378
      4          6           0       -2.288131    0.708349    0.291959
      5          1           0       -2.416756    1.492128   -0.493003
      6          1           0       -3.070430    0.854896    1.071521
      7          6           0       -2.288208   -0.708303   -0.291969
      8          1           0       -2.416773   -1.492142    0.492967
      9          1           0       -3.070445   -0.854904   -1.071624
     10          6           0        2.288156    0.708369   -0.291989
     11          1           0        2.416790    1.492152    0.493013
     12          1           0        3.070436    0.854912   -1.071586
     13          6           0        2.288097   -0.708381    0.291946
     14          1           0        2.416810   -1.492155   -0.493084
     15          1           0        3.070372   -0.854948    1.071577
     16          8           0       -1.023762   -0.893472   -0.901366
     17          8           0        1.023802   -0.893450    0.901396
 ---------------------------------------------------------------------
 Rotational constants (GHZ):           3.3972475           1.1444211           1.0821835
 Standard basis: def2TZVPP (5D, 7F)
 There are   456 symmetry adapted cartesian basis functions of A   symmetry.
 There are   402 symmetry adapted basis functions of A   symmetry.
   402 basis functions,   613 primitive gaussians,   456 cartesian basis functions
    39 alpha electrons       39 beta electrons
       nuclear repulsion energy       618.3341103487 Hartrees.
 NAtoms=   17 NActive=   17 NUniq=   17 SFac= 1.00D+00 NAtFMM=   60 NAOKFM=F Big=F
 Integral buffers will be    131072 words long.
 Raffenetti 2 integral format.
 Two-electron integral symmetry is turned on.
 Nuclear repulsion after empirical dispersion term =      618.3263247324 Hartrees.
 One-electron integrals computed using PRISM.
   1 Symmetry operations used in ECPInt.
 ECPInt:  NShTT=   11325 NPrTT=   31861 LenC2=   10850 LenP2D=   24345.
 LDataN:  DoStor=T MaxTD1= 6 Len=  172
 NBasis=   402 RedAO= T EigKep=  2.55D-04  NBF=   402
 NBsUse=   402 1.00D-06 EigRej= -1.00D+00 NBFU=   402
 ExpMin= 7.01D-02 ExpMax= 4.48D+04 ExpMxC= 1.53D+03 IAcc=3 IRadAn=         5 AccDes= 0.00D+00
 Harris functional with IExCor= 4639 and IRadAn=       5 diagonalized for initial guess.
 HarFok:  IExCor= 4639 AccDes= 0.00D+00 IRadAn=         5 IDoV= 1 UseB2=F ITyADJ=14
 ICtDFT=  3500011 ScaDFX=  1.000000  1.000000  1.000000  1.000000
 FoFCou: FMM=F IPFlag=           0 FMFlag=      100000 FMFlg1=           0
         NFxFlg=           0 DoJE=T BraDBF=F KetDBF=T FulRan=T
         wScrn=  0.000000 ICntrl=       500 IOpCl=  0 I1Cent=   200000004 NGrid=           0
         NMat0=    1 NMatS0=      1 NMatT0=    0 NMatD0=    1 NMtDS0=    0 NMtDT0=    0
 Petite list used in FoFCou.
 Requested convergence on RMS density matrix=1.00D-08 within 128 cycles.
 Requested convergence on MAX density matrix=1.00D-06.
 Requested convergence on             energy=1.00D-06.
 No special actions if energy rises.
 Integral accuracy reduced to 1.0D-05 until final iterations.
 Initial convergence to 1.0D-05 achieved.  Increase integral accuracy.
 SCF Done:  E(RwB97XD) =  -747.827751564     A.U. after   13 cycles
            NFock= 13  Conv=0.56D-08     -V/T= 2.0035

 **********************************************************************

            Population analysis using the SCF Density.

 **********************************************************************

 Orbital symmetries:
       Occupied  (A) (A) (A) (A) (A) (A) (A) (A) (A) (A) (A) (A)
                 (A) (A) (A) (A) (A) (A) (A) (A) (A) (A) (A) (A)
                 (A) (A) (A) (A) (A) (A) (A) (A) (A) (A) (A) (A)
                 (A) (A) (A)
       Virtual   (A) (A) (A) (A) (A) (A) (A) (A) (A) (A) (A) (A)
                 (A) (A) (A) (A) (A) (A) (A) (A) (A) (A) (A) (A)
                 (A) (A) (A) (A) (A) (A) (A) (A) (A) (A) (A) (A)
                 (A) (A) (A) (A) (A) (A) (A) (A) (A) (A) (A) (A)
                 (A) (A) (A) (A) (A) (A) (A) (A) (A) (A) (A) (A)
                 (A) (A) (A) (A) (A) (A) (A) (A) (A) (A) (A) (A)
                 (A) (A) (A) (A) (A) (A) (A) (A) (A) (A) (A) (A)
                 (A) (A) (A) (A) (A) (A) (A) (A) (A) (A) (A) (A)
                 (A) (A) (A) (A) (A) (A) (A) (A) (A) (A) (A) (A)
                 (A) (A) (A) (A) (A) (A) (A) (A) (A) (A) (A) (A)
                 (A) (A) (A) (A) (A) (A) (A) (A) (A) (A) (A) (A)
                 (A) (A) (A) (A) (A) (A) (A) (A) (A) (A) (A) (A)
                 (A) (A) (A) (A) (A) (A) (A) (A) (A) (A) (A) (A)
                 (A) (A) (A) (A) (A) (A) (A) (A) (A) (A) (A) (A)
                 (A) (A) (A) (A) (A) (A) (A) (A) (A) (A) (A) (A)
                 (A) (A) (A) (A) (A) (A) (A) (A) (A) (A) (A) (A)
                 (A) (A) (A) (A) (A) (A) (A) (A) (A) (A) (A) (A)
                 (A) (A) (A) (A) (A) (A) (A) (A) (A) (A) (A) (A)
                 (A) (A) (A) (A) (A) (A) (A) (A) (A) (A) (A) (A)
                 (A) (A) (A) (A) (A) (A) (A) (A) (A) (A) (A) (A)
                 (A) (A) (A) (A) (A) (A) (A) (A) (A) (A) (A) (A)
                 (A) (A) (A) (A) (A) (A) (A) (A) (A) (A) (A) (A)
                 (A) (A) (A) (A) (A) (A) (A) (A) (A) (A) (A) (A)
                 (A) (A) (A) (A) (A) (A) (A) (A) (A) (A) (A) (A)
                 (A) (A) (A) (A) (A) (A) (A) (A) (A) (A) (A) (A)
                 (A) (A) (A) (A) (A) (A) (A) (A) (A) (A) (A) (A)
                 (A) (A) (A) (A) (A) (A) (A) (A) (A) (A) (A) (A)
                 (A) (A) (A) (A) (A) (A) (A) (A) (A) (A) (A) (A)
                 (A) (A) (A) (A) (A) (A) (A) (A) (A) (A) (A) (A)
                 (A) (A) (A) (A) (A) (A) (A) (A) (A) (A) (A) (A)
                 (A) (A) (A)
 The electronic state is 1-A.
 Alpha  occ. eigenvalues --  -66.30054 -19.25701 -19.25700 -19.25700 -19.25699
 Alpha  occ. eigenvalues --  -10.35057 -10.35056 -10.35035 -10.35034  -5.42209
 Alpha  occ. eigenvalues --   -3.76705  -3.76659  -3.76657  -1.17842  -1.15116
 Alpha  occ. eigenvalues --   -1.10914  -1.10812  -0.84636  -0.82649  -0.72604
 Alpha  occ. eigenvalues --   -0.71473  -0.64450  -0.60975  -0.60307  -0.58730
 Alpha  occ. eigenvalues --   -0.58126  -0.54563  -0.53269  -0.52278  -0.50568
 Alpha  occ. eigenvalues --   -0.50257  -0.44525  -0.44347  -0.42158  -0.41686
 Alpha  occ. eigenvalues --   -0.40781  -0.38939  -0.38813  -0.36119
 Alpha virt. eigenvalues --    0.10897   0.11970   0.13369   0.13606   0.14907
 Alpha virt. eigenvalues --    0.16318   0.17033   0.17603   0.17668   0.19226
 Alpha virt. eigenvalues --    0.20054   0.20058   0.23602   0.24551   0.24585
 Alpha virt. eigenvalues --    0.26564   0.26859   0.28013   0.28310   0.29447
 Alpha virt. eigenvalues --    0.31775   0.32390   0.35393   0.36384   0.38059
 Alpha virt. eigenvalues --    0.39110   0.39940   0.40514   0.41294   0.43012
 Alpha virt. eigenvalues --    0.44217   0.44713   0.44768   0.44809   0.45099
 Alpha virt. eigenvalues --    0.47067   0.47369   0.47707   0.48966   0.49954
 Alpha virt. eigenvalues --    0.50655   0.51590   0.52470   0.52813   0.57728
 Alpha virt. eigenvalues --    0.58200   0.58748   0.59549   0.59789   0.63195
 Alpha virt. eigenvalues --    0.64528   0.64688   0.67370   0.69641   0.72685
 Alpha virt. eigenvalues --    0.73653   0.75730   0.75905   0.78439   0.79169
 Alpha virt. eigenvalues --    0.79565   0.82314   0.82528   0.83300   0.84425
 Alpha virt. eigenvalues --    0.87619   0.88485   0.90505   0.91684   0.92597
 Alpha virt. eigenvalues --    0.92857   0.95952   0.96972   0.99882   1.00778
 Alpha virt. eigenvalues --    1.03199   1.04222   1.04631   1.04807   1.05053
 Alpha virt. eigenvalues --    1.07512   1.07519   1.09017   1.10726   1.14223
 Alpha virt. eigenvalues --    1.14474   1.15229   1.17019   1.19483   1.20284
 Alpha virt. eigenvalues --    1.20740   1.22614   1.24296   1.24741   1.25921
 Alpha virt. eigenvalues --    1.26098   1.27109   1.28899   1.29836   1.30839
 Alpha virt. eigenvalues --    1.32125   1.32924   1.34668   1.38543   1.39826
 Alpha virt. eigenvalues --    1.43018   1.43486   1.45384   1.47274   1.48671
 Alpha virt. eigenvalues --    1.49121   1.49345   1.50399   1.52486   1.53296
 Alpha virt. eigenvalues --    1.53864   1.58147   1.58622   1.61783   1.62927
 Alpha virt. eigenvalues --    1.64904   1.65960   1.67483   1.68911   1.71486
 Alpha virt. eigenvalues --    1.71719   1.76618   1.84187   1.85730   1.88639
 Alpha virt. eigenvalues --    1.89785   1.92114   1.92199   1.93596   1.99988
 Alpha virt. eigenvalues --    2.01522   2.03494   2.06192   2.06946   2.08275
 Alpha virt. eigenvalues --    2.10877   2.11889   2.15495   2.22234   2.22836
 Alpha virt. eigenvalues --    2.23368   2.25102   2.29546   2.31210   2.33848
 Alpha virt. eigenvalues --    2.37058   2.38270   2.38630   2.40571   2.41946
 Alpha virt. eigenvalues --    2.42013   2.46633   2.46709   2.50684   2.58193
 Alpha virt. eigenvalues --    2.62010   2.65936   2.66502   2.67392   2.71797
 Alpha virt. eigenvalues --    2.72285   2.72574   2.72998   2.80001   2.82291
 Alpha virt. eigenvalues --    2.82990   2.86202   2.89902   2.90544   2.90684
 Alpha virt. eigenvalues --    2.91366   2.93008   2.93434   2.93678   2.94853
 Alpha virt. eigenvalues --    2.99004   3.00885   3.03662   3.05589   3.06827
 Alpha virt. eigenvalues --    3.08246   3.08514   3.09399   3.10111   3.14606
 Alpha virt. eigenvalues --    3.17204   3.18243   3.18491   3.20495   3.22014
 Alpha virt. eigenvalues --    3.22106   3.22567   3.22988   3.24326   3.25143
 Alpha virt. eigenvalues --    3.29162   3.33511   3.35155   3.36170   3.37037
 Alpha virt. eigenvalues --    3.37212   3.37541   3.39343   3.41560   3.53838
 Alpha virt. eigenvalues --    3.53879   3.53888   3.57761   3.58195   3.60135
 Alpha virt. eigenvalues --    3.61540   3.62241   3.63380   3.64551   3.69541
 Alpha virt. eigenvalues --    3.71228   3.73189   3.73398   3.77497   3.78205
 Alpha virt. eigenvalues --    3.78457   3.80356   3.81440   3.83781   3.85057
 Alpha virt. eigenvalues --    3.86499   3.87506   3.88007   3.89375   3.90683
 Alpha virt. eigenvalues --    3.91162   3.99170   3.99808   4.01878   4.04197
 Alpha virt. eigenvalues --    4.04993   4.07772   4.11419   4.12199   4.14466
 Alpha virt. eigenvalues --    4.15464   4.17466   4.17885   4.21025   4.22715
 Alpha virt. eigenvalues --    4.23335   4.27542   4.29257   4.29734   4.29818
 Alpha virt. eigenvalues --    4.30604   4.39301   4.39333   4.42591   4.46355
 Alpha virt. eigenvalues --    4.49423   4.57105   4.59896   4.62095   4.62546
 Alpha virt. eigenvalues --    4.63303   4.65113   4.68654   4.72050   4.77641
 Alpha virt. eigenvalues --    4.77917   4.78280   4.79721   4.80103   4.81235
 Alpha virt. eigenvalues --    4.83457   4.89546   4.90091   4.91884   4.94070
 Alpha virt. eigenvalues --    4.98481   4.98805   5.01257   5.07228   5.07235
 Alpha virt. eigenvalues --    5.08327   5.10374   5.16920   5.20564   5.21424
 Alpha virt. eigenvalues --    5.24071   5.24226   5.26497   5.31122   5.33489
 Alpha virt. eigenvalues --    5.33734   5.34787   5.35508   5.42049   5.42212
 Alpha virt. eigenvalues --    5.42534   5.45989   5.46597   5.49970   5.50367
 Alpha virt. eigenvalues --    5.56305   5.56674   5.58809   5.62873   5.64380
 Alpha virt. eigenvalues --    5.65926   5.69266   5.69302   5.70303   5.73603
 Alpha virt. eigenvalues --    5.74025   5.75003   5.81539   5.93451   5.95058
 Alpha virt. eigenvalues --    5.95946   6.01158   6.05819   6.10769   6.13082
 Alpha virt. eigenvalues --    6.14010   6.14860   6.20960   6.21716   6.29153
 Alpha virt. eigenvalues --    6.31434   6.74656   6.74729   6.76439   6.77300
 Alpha virt. eigenvalues --    6.80793   6.81364   6.83963   6.86069   6.95066
 Alpha virt. eigenvalues --    6.95710   7.01507   7.04516   7.11167   7.11475
 Alpha virt. eigenvalues --    7.14114   7.18942   7.29109   7.30164   7.30839
 Alpha virt. eigenvalues --    7.31632   7.56124   7.61739   8.12942  12.47853
 Alpha virt. eigenvalues --   23.23681  23.33140  23.33983  23.38041  44.14622
 Alpha virt. eigenvalues --   44.20970  44.21418  44.28212
          Condensed to atoms (all electrons):
               1          2          3          4          5          6
     1  Si  11.501229   0.452405   0.452391  -0.040495  -0.000791   0.004864
     2  O    0.452405   7.855977  -0.017294   0.000450   0.000843  -0.000104
     3  O    0.452391  -0.017294   7.855953   0.258076  -0.044158  -0.035484
     4  C   -0.040495   0.000450   0.258076   4.735097   0.433167   0.388544
     5  H   -0.000791   0.000843  -0.044158   0.433167   0.622656  -0.042504
     6  H    0.004864  -0.000104  -0.035484   0.388544  -0.042504   0.625203
     7  C   -0.040496   0.000807  -0.062666   0.317403  -0.048145  -0.013497
     8  H   -0.000793  -0.000144   0.004363  -0.048138   0.008636  -0.009033
     9  H    0.004863  -0.000026   0.003615  -0.013491  -0.009032   0.004741
    10  C   -0.040512   0.258054   0.000451   0.001002   0.000178   0.000021
    11  H   -0.000787  -0.044162   0.000843   0.000178  -0.000037  -0.000001
    12  H    0.004863  -0.035484  -0.000104   0.000021  -0.000001   0.000000
    13  C   -0.040510  -0.062682   0.000807  -0.001987  -0.000022   0.000072
    14  H   -0.000786   0.004364  -0.000144  -0.000022  -0.000002  -0.000003
    15  H    0.004864   0.003615  -0.000026   0.000072  -0.000003   0.000001
    16  O    0.452406  -0.013212  -0.014144  -0.062664   0.004362   0.003615
    17  O    0.452385  -0.014139  -0.013211   0.000807  -0.000144  -0.000026
               7          8          9         10         11         12
     1  Si  -0.040496  -0.000793   0.004863  -0.040512  -0.000787   0.004863
     2  O    0.000807  -0.000144  -0.000026   0.258054  -0.044162  -0.035484
     3  O   -0.062666   0.004363   0.003615   0.000451   0.000843  -0.000104
     4  C    0.317403  -0.048138  -0.013491   0.001002   0.000178   0.000021
     5  H   -0.048145   0.008636  -0.009032   0.000178  -0.000037  -0.000001
     6  H   -0.013497  -0.009033   0.004741   0.000021  -0.000001   0.000000
     7  C    4.735214   0.433164   0.388541  -0.001986  -0.000022   0.000072
     8  H    0.433164   0.622618  -0.042494  -0.000022  -0.000002  -0.000003
     9  H    0.388541  -0.042494   0.625160   0.000072  -0.000003   0.000001
    10  C   -0.001986  -0.000022   0.000072   4.735174   0.433149   0.388547
    11  H   -0.000022  -0.000002  -0.000003   0.433149   0.622663  -0.042503
    12  H    0.000072  -0.000003   0.000001   0.388547  -0.042503   0.625196
    13  C    0.001002   0.000178   0.000021   0.317437  -0.048139  -0.013496
    14  H    0.000178  -0.000037  -0.000001  -0.048152   0.008636  -0.009031
    15  H    0.000021  -0.000001   0.000000  -0.013495  -0.009032   0.004741
    16  O    0.258046  -0.044159  -0.035479   0.000807  -0.000144  -0.000026
    17  O    0.000450   0.000843  -0.000104  -0.062678   0.004365   0.003615
              13         14         15         16         17
     1  Si  -0.040510  -0.000786   0.004864   0.452406   0.452385
     2  O   -0.062682   0.004364   0.003615  -0.013212  -0.014139
     3  O    0.000807  -0.000144  -0.000026  -0.014144  -0.013211
     4  C   -0.001987  -0.000022   0.000072  -0.062664   0.000807
     5  H   -0.000022  -0.000002  -0.000003   0.004362  -0.000144
     6  H    0.000072  -0.000003   0.000001   0.003615  -0.000026
     7  C    0.001002   0.000178   0.000021   0.258046   0.000450
     8  H    0.000178  -0.000037  -0.000001  -0.044159   0.000843
     9  H    0.000021  -0.000001   0.000000  -0.035479  -0.000104
    10  C    0.317437  -0.048152  -0.013495   0.000807  -0.062678
    11  H   -0.048139   0.008636  -0.009032  -0.000144   0.004365
    12  H   -0.013496  -0.009031   0.004741  -0.000026   0.003615
    13  C    4.735159   0.433149   0.388542   0.000451   0.258066
    14  H    0.433149   0.622677  -0.042505   0.000843  -0.044156
    15  H    0.388542  -0.042505   0.625219  -0.000104  -0.035493
    16  O    0.000451   0.000843  -0.000104   7.855978  -0.017294
    17  O    0.258066  -0.044156  -0.035493  -0.017294   7.855983
 Mulliken charges:
               1
     1  Si   0.834901
     2  O   -0.389268
     3  O   -0.389268
     4  C    0.031979
     5  H    0.074997
     6  H    0.073591
     7  C    0.031914
     8  H    0.075022
     9  H    0.073616
    10  C    0.031953
    11  H    0.074997
    12  H    0.073594
    13  C    0.031952
    14  H    0.074990
    15  H    0.073582
    16  O   -0.389282
    17  O   -0.389270
 Sum of Mulliken charges =  -0.00000
 Mulliken charges with hydrogens summed into heavy atoms:
               1
     1  Si   0.834901
     2  O   -0.389268
     3  O   -0.389268
     4  C    0.180567
     7  C    0.180552
    10  C    0.180544
    13  C    0.180525
    16  O   -0.389282
    17  O   -0.389270
 Electronic spatial extent (au):  <R**2>=           1207.8897
 Charge=             -0.0000 electrons
 Dipole moment (field-independent basis, Debye):
    X=             -0.0009    Y=              0.0002    Z=             -0.0001  Tot=              0.0010
 Quadrupole moment (field-independent basis, Debye-Ang):
   XX=            -44.0344   YY=            -60.7363   ZZ=            -63.0951
   XY=              0.0003   XZ=             -0.0003   YZ=             -0.0001
 Traceless Quadrupole moment (field-independent basis, Debye-Ang):
   XX=             11.9209   YY=             -4.7810   ZZ=             -7.1398
   XY=              0.0003   XZ=             -0.0003   YZ=             -0.0001
 Octapole moment (field-independent basis, Debye-Ang**2):
  XXX=             -0.0103  YYY=              0.0005  ZZZ=             -0.0000  XYY=             -0.0014
  XXY=              0.0002  XXZ=             -0.0024  XZZ=             -0.0008  YZZ=              0.0001
  YYZ=              0.0002  XYZ=              4.3129
 Hexadecapole moment (field-independent basis, Debye-Ang**3):
 XXXX=           -989.3222 YYYY=           -279.8849 ZZZZ=           -207.9348 XXXY=              0.0046
 XXXZ=             -0.0020 YYYX=              0.0011 YYYZ=             -0.0004 ZZZX=              0.0000
 ZZZY=             -0.0002 XXYY=           -215.1864 XXZZ=           -201.8432 YYZZ=            -83.6238
 XXYZ=              0.0016 YYXZ=             -0.0003 ZZXY=              0.0008
 N-N= 6.183263247324D+02 E-N=-3.002988059175D+03  KE= 7.451875806976D+02
   1 Symmetry operations used in ECPInt.
 ECPInt:  NShTT=   11325 NPrTT=   31861 LenC2=   10850 LenP2D=   24345.
 LDataN:  DoStor=T MaxTD1= 7 Len=  274
 Calling FoFJK, ICntrl=      2127 FMM=F ISym2X=0 I1Cent= 0 IOpClX= 0 NMat=1 NMatS=1 NMatT=0.
 ***** Axes restored to original set *****
 -------------------------------------------------------------------
 Center     Atomic                   Forces (Hartrees/Bohr)
 Number     Number              X              Y              Z
 -------------------------------------------------------------------
      1       14          -0.000001852    0.000014341    0.000010396
      2        8          -0.004396551    0.001748783    0.003016291
      3        8          -0.001398583    0.001151526    0.005314909
      4        6          -0.012626066   -0.015433620   -0.018347807
      5        1          -0.011700606    0.006055415    0.005459418
      6        1           0.009697191   -0.000216133    0.011246144
      7        6          -0.015913640   -0.019101935    0.010702477
      8        1           0.009414366   -0.008839074   -0.006085610
      9        1           0.000129351    0.012118785   -0.008620578
     10        6           0.025568489    0.008886506   -0.000338398
     11        1          -0.001885980    0.000819112    0.014129614
     12        1          -0.013543166    0.002162525   -0.005718875
     13        6           0.003011414    0.025732596    0.008032027
     14        1           0.004165829    0.001948927   -0.013525064
     15        1           0.003722358   -0.014064272    0.003080529
     16        8           0.002508066    0.000194498   -0.005031242
     17        8           0.003249379   -0.003177980   -0.003324230
 -------------------------------------------------------------------
 Cartesian Forces:  Max     0.025732596 RMS     0.009661631

 GradGradGradGradGradGradGradGradGradGradGradGradGradGradGradGradGradGrad
 Berny optimization.
 FormGI is forming the generalized inverse of G from B-inverse, IUseBI=4.
 Internal  Forces:  Max     0.014700222 RMS     0.006989630
 Search for a local minimum.
 Step number   1 out of a maximum of  102
 All quantities printed in internal units (Hartrees-Bohrs-Radians)
 Mixed Optimization -- RFO/linear search
 Second derivative matrix not updated -- first step.
 ITU=  0
     Eigenvalues ---    0.00919   0.00924   0.03080   0.03080   0.05002
     Eigenvalues ---    0.05002   0.05014   0.05035   0.05528   0.05528
     Eigenvalues ---    0.06074   0.06077   0.10074   0.10098   0.10270
     Eigenvalues ---    0.10341   0.11400   0.11400   0.11447   0.11450
     Eigenvalues ---    0.13155   0.13173   0.15108   0.16126   0.21469
     Eigenvalues ---    0.21715   0.21717   0.27431   0.28182   0.31895
     Eigenvalues ---    0.31898   0.31899   0.31901   0.32168   0.32168
     Eigenvalues ---    0.32170   0.32171   0.39904   0.40429   0.40438
     Eigenvalues ---    0.40637   0.43809   0.43992   0.45151   0.45152
 RFO step:  Lambda=-1.81068619D-02 EMin= 9.19008290D-03
 Linear search not attempted -- first point.
 Iteration  1 RMS(Cart)=  0.07155739 RMS(Int)=  0.00092844
 Iteration  2 RMS(Cart)=  0.00092932 RMS(Int)=  0.00046872
 Iteration  3 RMS(Cart)=  0.00000066 RMS(Int)=  0.00046872
 Variable       Old X    -DE/DX   Delta X   Delta X   Delta X     New X
                                 (Linear)    (Quad)   (Total)
    R1        3.08139   0.00914   0.00000   0.01787   0.01791   3.09930
    R2        3.08137   0.00915   0.00000   0.01789   0.01794   3.09931
    R3        3.08138   0.00914   0.00000   0.01787   0.01792   3.09929
    R4        3.08144   0.00913   0.00000   0.01786   0.01790   3.09934
    R5        2.67526   0.01326   0.00000   0.03119   0.03131   2.70658
    R6        2.67532   0.01324   0.00000   0.03114   0.03126   2.70658
    R7        2.11026  -0.01328   0.00000  -0.03938  -0.03938   2.07087
    R8        2.10532  -0.01444   0.00000  -0.04250  -0.04250   2.06282
    R9        2.89559  -0.00573   0.00000  -0.01853  -0.01886   2.87672
   R10        2.11029  -0.01329   0.00000  -0.03942  -0.03942   2.07087
   R11        2.10537  -0.01446   0.00000  -0.04256  -0.04256   2.06281
   R12        2.67546   0.01321   0.00000   0.03108   0.03120   2.70667
   R13        2.11032  -0.01329   0.00000  -0.03944  -0.03944   2.07088
   R14        2.10533  -0.01445   0.00000  -0.04252  -0.04252   2.06282
   R15        2.89576  -0.00576   0.00000  -0.01865  -0.01898   2.87678
   R16        2.11036  -0.01331   0.00000  -0.03948  -0.03948   2.07089
   R17        2.10538  -0.01446   0.00000  -0.04255  -0.04255   2.06283
   R18        2.67523   0.01326   0.00000   0.03119   0.03132   2.70655
    A1        1.98182   0.01087   0.00000   0.05093   0.05089   2.03272
    A2        1.97021   0.00477   0.00000   0.01419   0.01525   1.98546
    A3        1.78398  -0.01470   0.00000  -0.06116  -0.06116   1.72282
    A4        1.78402  -0.01470   0.00000  -0.06116  -0.06116   1.72286
    A5        1.97017   0.00477   0.00000   0.01421   0.01527   1.98544
    A6        1.98181   0.01087   0.00000   0.05094   0.05090   2.03272
    A7        1.82470   0.01132   0.00000   0.05791   0.05789   1.88259
    A8        1.82465   0.01133   0.00000   0.05793   0.05791   1.88256
    A9        1.88988   0.00139   0.00000   0.01912   0.01925   1.90912
   A10        1.88463   0.00614   0.00000   0.04044   0.04027   1.92490
   A11        1.85977  -0.00296   0.00000  -0.00729  -0.00792   1.85184
   A12        1.89511   0.00076   0.00000  -0.00123  -0.00221   1.89290
   A13        1.96170  -0.00298   0.00000  -0.03884  -0.03931   1.92239
   A14        1.96951  -0.00187   0.00000  -0.00754  -0.00728   1.96223
   A15        1.96177  -0.00298   0.00000  -0.03888  -0.03935   1.92242
   A16        1.96966  -0.00189   0.00000  -0.00765  -0.00739   1.96227
   A17        1.85970  -0.00295   0.00000  -0.00723  -0.00786   1.85184
   A18        1.89514   0.00076   0.00000  -0.00124  -0.00222   1.89292
   A19        1.88974   0.00140   0.00000   0.01921   0.01934   1.90908
   A20        1.88456   0.00615   0.00000   0.04047   0.04030   1.92486
   A21        1.88986   0.00139   0.00000   0.01915   0.01928   1.90914
   A22        1.88464   0.00614   0.00000   0.04044   0.04027   1.92490
   A23        1.85966  -0.00295   0.00000  -0.00720  -0.00783   1.85183
   A24        1.89515   0.00076   0.00000  -0.00125  -0.00223   1.89291
   A25        1.96171  -0.00298   0.00000  -0.03887  -0.03934   1.92237
   A26        1.96957  -0.00188   0.00000  -0.00759  -0.00734   1.96224
   A27        1.96167  -0.00297   0.00000  -0.03885  -0.03932   1.92235
   A28        1.96954  -0.00188   0.00000  -0.00756  -0.00730   1.96224
   A29        1.85975  -0.00296   0.00000  -0.00728  -0.00792   1.85184
   A30        1.89511   0.00076   0.00000  -0.00124  -0.00221   1.89289
   A31        1.89000   0.00138   0.00000   0.01904   0.01916   1.90916
   A32        1.88453   0.00616   0.00000   0.04056   0.04039   1.92492
   A33        1.82464   0.01133   0.00000   0.05791   0.05790   1.88254
   A34        1.82463   0.01133   0.00000   0.05797   0.05795   1.88258
    D1        1.90860   0.00280   0.00000   0.01792   0.01721   1.92582
    D2       -2.35426  -0.00543   0.00000  -0.01633  -0.01639  -2.37066
    D3       -0.21885   0.00082   0.00000   0.01355   0.01344  -0.20541
    D4        1.90862   0.00279   0.00000   0.01788   0.01718   1.92580
    D5       -0.21890   0.00081   0.00000   0.01352   0.01342  -0.20548
    D6       -2.35433  -0.00543   0.00000  -0.01636  -0.01642  -2.37075
    D7       -2.35426  -0.00543   0.00000  -0.01637  -0.01643  -2.37069
    D8       -0.21881   0.00081   0.00000   0.01350   0.01339  -0.20542
    D9        1.90866   0.00279   0.00000   0.01788   0.01717   1.92584
   D10       -0.21894   0.00082   0.00000   0.01356   0.01345  -0.20549
   D11       -2.35435  -0.00543   0.00000  -0.01632  -0.01638  -2.37073
   D12        1.90855   0.00280   0.00000   0.01791   0.01721   1.92576
   D13       -1.55941   0.00496   0.00000   0.01094   0.01095  -1.54846
   D14        2.67489   0.00000   0.00000  -0.01971  -0.02062   2.65426
   D15        0.55451   0.00052   0.00000  -0.02879  -0.02974   0.52477
   D16       -1.55941   0.00496   0.00000   0.01099   0.01101  -1.54840
   D17        2.67492   0.00000   0.00000  -0.01966  -0.02057   2.65434
   D18        0.55455   0.00052   0.00000  -0.02877  -0.02971   0.52484
   D19        1.32390   0.00476   0.00000   0.06751   0.06702   1.39092
   D20       -2.80877   0.00203   0.00000   0.02990   0.02976  -2.77900
   D21       -0.74337   0.00659   0.00000   0.07048   0.06985  -0.67352
   D22       -2.89184   0.00292   0.00000   0.06442   0.06405  -2.82778
   D23       -0.74132   0.00019   0.00000   0.02681   0.02680  -0.71452
   D24        1.32407   0.00475   0.00000   0.06738   0.06689   1.39096
   D25       -0.74154   0.00020   0.00000   0.02695   0.02694  -0.71459
   D26        1.40898  -0.00254   0.00000  -0.01066  -0.01031   1.39867
   D27       -2.80881   0.00203   0.00000   0.02992   0.02978  -2.77904
   D28        0.55446   0.00053   0.00000  -0.02873  -0.02967   0.52479
   D29       -1.55948   0.00497   0.00000   0.01099   0.01101  -1.54847
   D30        2.67493  -0.00000   0.00000  -0.01970  -0.02062   2.65431
   D31        1.32412   0.00475   0.00000   0.06738   0.06689   1.39100
   D32       -2.80877   0.00202   0.00000   0.02989   0.02975  -2.77902
   D33       -0.74345   0.00660   0.00000   0.07059   0.06995  -0.67349
   D34       -2.89170   0.00292   0.00000   0.06436   0.06400  -2.82770
   D35       -0.74140   0.00019   0.00000   0.02687   0.02686  -0.71454
   D36        1.32392   0.00477   0.00000   0.06757   0.06707   1.39099
   D37       -0.74130   0.00018   0.00000   0.02680   0.02679  -0.71450
   D38        1.40900  -0.00254   0.00000  -0.01070  -0.01035   1.39865
   D39       -2.80886   0.00203   0.00000   0.03000   0.02986  -2.77900
   D40        0.55460   0.00052   0.00000  -0.02882  -0.02977   0.52483
   D41       -1.55940   0.00497   0.00000   0.01099   0.01101  -1.54839
   D42        2.67493  -0.00000   0.00000  -0.01968  -0.02059   2.65434
         Item               Value     Threshold  Converged?
 Maximum Force            0.014700     0.000450     NO 
 RMS     Force            0.006990     0.000300     NO 
 Maximum Displacement     0.225884     0.001800     NO 
 RMS     Displacement     0.071160     0.001200     NO 
 Predicted change in Energy=-1.002922D-02
 GradGradGradGradGradGradGradGradGradGradGradGradGradGradGradGradGradGrad

                          Input orientation:                          
 ---------------------------------------------------------------------
 Center     Atomic      Atomic             Coordinates (Angstroms)
 Number     Number       Type             X           Y           Z
 ---------------------------------------------------------------------
      1         14           0       -0.000007   -0.000014    0.000004
      2          8           0        1.639209    0.045177    0.028107
      3          8           0       -0.693029   -0.523972   -1.391059
      4          6           0       -1.282469   -1.803632   -1.133377
      5          1           0       -0.539710   -2.589064   -1.313144
      6          1           0       -2.130521   -1.970893   -1.800022
      7          6           0       -1.689929   -1.793174    0.333337
      8          1           0       -2.634561   -1.252033    0.458795
      9          1           0       -1.811494   -2.799263    0.739024
     10          6           0        2.040686    1.419952    0.041275
     11          1           0        2.138071    1.780337   -0.989043
     12          1           0        3.006902    1.527373    0.537730
     13          6           0        0.931711    2.176808    0.758785
     14          1           0        1.036276    2.060767    1.843461
     15          1           0        0.935157    3.242717    0.523370
     16          8           0       -0.648466   -1.099286    1.030028
     17          8           0       -0.297728    1.578101    0.332930
 ---------------------------------------------------------------------
                    Distance matrix (angstroms):
                    1          2          3          4          5
     1  Si   0.000000
     2  O    1.640079   0.000000
     3  O    1.640082   2.788780   0.000000
     4  C    2.486423   3.647374   1.432261   0.000000
     5  H    2.952764   3.672311   2.072241   1.095860   0.000000
     6  H    3.415194   4.649457   2.080196   1.091597   1.774786
     7  C    2.486437   3.815214   2.361827   1.522295   2.160403
     8  H    2.952781   4.487021   2.778773   2.160423   3.052182
     9  H    3.415177   4.528089   3.311370   2.185643   2.423429
    10  C    2.486451   1.432259   3.647413   4.776470   4.956320
    11  H    2.952836   2.072254   3.672408   4.956386   5.134902
    12  H    3.415196   2.080194   4.649487   5.682156   5.740143
    13  C    2.486444   2.361842   3.815209   4.932218   5.401065
    14  H    2.952801   2.778784   4.487035   5.401085   5.836849
    15  H    3.415223   3.311379   4.528131   5.755720   6.289490
    16  O    1.640076   2.747198   2.488902   2.361860   2.778798
    17  O    1.640099   2.488874   2.747200   3.815218   4.487023
                    6          7          8          9         10
     6  H    0.000000
     7  C    2.185618   0.000000
     8  H    2.423442   1.095858   0.000000
     9  H    2.689745   1.091593   1.774793   0.000000
    10  C    5.682181   4.932238   5.401089   5.755686   0.000000
    11  H    5.740235   5.401135   5.836910   6.289516   1.095863
    12  H    6.640487   5.755695   6.289470   6.478984   1.091595
    13  C    5.755709   4.776480   4.956334   5.682152   1.522326
    14  H    6.289503   4.956362   5.134879   5.740162   2.160407
    15  H    6.479063   5.682199   5.740195   6.640491   2.185653
    16  O    3.311400   1.432307   2.072248   2.080201   3.815198
    17  O    4.528131   3.647427   3.672369   4.649486   2.361833
                   11         12         13         14         15
    11  H    0.000000
    12  H    1.774794   0.000000
    13  C    2.160416   2.185646   0.000000
    14  H    3.052158   2.423388   1.095865   0.000000
    15  H    2.423417   2.689747   1.091601   1.774787   0.000000
    16  O    4.487055   4.528069   3.647373   3.672324   4.649468
    17  O    2.778782   3.311358   1.432244   2.072253   2.080197
                   16         17
    16  O    0.000000
    17  O    2.788793   0.000000
 Stoichiometry    C4H8O4Si
 Framework group  C1[X(C4H8O4Si)]
 Deg. of freedom    45
 Full point group                 C1      NOp   1
 Largest Abelian subgroup         C1      NOp   1
 Largest concise Abelian subgroup C1      NOp   1
                         Standard orientation:                         
 ---------------------------------------------------------------------
 Center     Atomic      Atomic             Coordinates (Angstroms)
 Number     Number       Type             X           Y           Z
 ---------------------------------------------------------------------
      1         14           0       -0.000011    0.000000   -0.000002
      2          8           0        1.068278    0.863454   -0.896142
      3          8           0       -1.068295    0.863440    0.896161
      4          6           0       -2.367065    0.691885    0.317252
      5          1           0       -2.527828    1.458501   -0.449145
      6          1           0       -3.139263    0.799740    1.081229
      7          6           0       -2.367084   -0.691873   -0.317255
      8          1           0       -2.527848   -1.458507    0.449120
      9          1           0       -3.139232   -0.799729   -1.081276
     10          6           0        2.367069    0.691881   -0.317290
     11          1           0        2.527900    1.458500    0.449094
     12          1           0        3.139232    0.799684   -1.081307
     13          6           0        2.367062   -0.691884    0.317274
     14          1           0        2.527855   -1.458496   -0.449127
     15          1           0        3.139271   -0.799719    1.081249
     16          8           0       -1.068265   -0.863475   -0.896155
     17          8           0        1.068304   -0.863423    0.896173
 ---------------------------------------------------------------------
 Rotational constants (GHZ):           3.5200709           1.0771334           1.0329040
 Standard basis: def2TZVPP (5D, 7F)
 There are   456 symmetry adapted cartesian basis functions of A   symmetry.
 There are   402 symmetry adapted basis functions of A   symmetry.
   402 basis functions,   613 primitive gaussians,   456 cartesian basis functions
    39 alpha electrons       39 beta electrons
       nuclear repulsion energy       611.8793673535 Hartrees.
 NAtoms=   17 NActive=   17 NUniq=   17 SFac= 1.00D+00 NAtFMM=   60 NAOKFM=F Big=F
 Integral buffers will be    131072 words long.
 Raffenetti 2 integral format.
 Two-electron integral symmetry is turned on.
 Nuclear repulsion after empirical dispersion term =      611.8717422885 Hartrees.
 One-electron integrals computed using PRISM.
   1 Symmetry operations used in ECPInt.
 ECPInt:  NShTT=   11325 NPrTT=   31861 LenC2=   10818 LenP2D=   24155.
 LDataN:  DoStor=T MaxTD1= 6 Len=  172
 NBasis=   402 RedAO= T EigKep=  2.63D-04  NBF=   402
 NBsUse=   402 1.00D-06 EigRej= -1.00D+00 NBFU=   402
 Initial guess from the checkpoint file:  "QBiL2_EG_20kmmx_confOpt_1.chk"
 B after Tr=     0.000000   -0.000000   -0.000000
         Rot=    1.000000    0.000006   -0.000000   -0.000003 Ang=   0.00 deg.
 ExpMin= 7.01D-02 ExpMax= 4.48D+04 ExpMxC= 1.53D+03 IAcc=3 IRadAn=         5 AccDes= 0.00D+00
 Harris functional with IExCor= 4639 and IRadAn=       5 diagonalized for initial guess.
 HarFok:  IExCor= 4639 AccDes= 0.00D+00 IRadAn=         5 IDoV= 1 UseB2=F ITyADJ=14
 ICtDFT=  3500011 ScaDFX=  1.000000  1.000000  1.000000  1.000000
 FoFCou: FMM=F IPFlag=           0 FMFlag=      100000 FMFlg1=           0
         NFxFlg=           0 DoJE=T BraDBF=F KetDBF=T FulRan=T
         wScrn=  0.000000 ICntrl=       500 IOpCl=  0 I1Cent=   200000004 NGrid=           0
         NMat0=    1 NMatS0=      1 NMatT0=    0 NMatD0=    1 NMtDS0=    0 NMtDT0=    0
 Petite list used in FoFCou.
 Requested convergence on RMS density matrix=1.00D-08 within 128 cycles.
 Requested convergence on MAX density matrix=1.00D-06.
 Requested convergence on             energy=1.00D-06.
 No special actions if energy rises.
 Integral accuracy reduced to 1.0D-05 until final iterations.
 Initial convergence to 1.0D-05 achieved.  Increase integral accuracy.
 SCF Done:  E(RwB97XD) =  -747.837131502     A.U. after   11 cycles
            NFock= 11  Conv=0.62D-08     -V/T= 2.0036
   1 Symmetry operations used in ECPInt.
 ECPInt:  NShTT=   11325 NPrTT=   31861 LenC2=   10818 LenP2D=   24155.
 LDataN:  DoStor=T MaxTD1= 7 Len=  274
 Calling FoFJK, ICntrl=      2127 FMM=F ISym2X=0 I1Cent= 0 IOpClX= 0 NMat=1 NMatS=1 NMatT=0.
 ***** Axes restored to original set *****
 -------------------------------------------------------------------
 Center     Atomic                   Forces (Hartrees/Bohr)
 Number     Number              X              Y              Z
 -------------------------------------------------------------------
      1       14           0.000001493    0.000015706    0.000001323
      2        8           0.000732260    0.005597514    0.000595690
      3        8          -0.002508118   -0.004700514    0.001966852
      4        6           0.001842572   -0.000146988   -0.003379559
      5        1          -0.000544881    0.001258831   -0.000735417
      6        1           0.001027441    0.002650483    0.000637456
      7        6          -0.001232167    0.000880458    0.003557392
      8        1           0.001159447   -0.000515733    0.000898462
      9        1           0.002444628    0.001551016    0.000295293
     10        6           0.002220589   -0.001905961   -0.002487199
     11        1           0.000472079   -0.001225241    0.000842293
     12        1          -0.001766218   -0.002276020    0.000427783
     13        6          -0.002809719    0.001190512    0.002328969
     14        1          -0.001090952    0.000477044   -0.001009008
     15        1          -0.001707381   -0.001930352   -0.001363724
     16        8          -0.003548855   -0.002624968   -0.003606044
     17        8           0.005307782    0.001704213    0.001029438
 -------------------------------------------------------------------
 Cartesian Forces:  Max     0.005597514 RMS     0.002132954

 GradGradGradGradGradGradGradGradGradGradGradGradGradGradGradGradGradGrad
 Berny optimization.
 Using GEDIIS/GDIIS optimizer.
 FormGI is forming the generalized inverse of G from B-inverse, IUseBI=4.
 Internal  Forces:  Max     0.004446137 RMS     0.001352323
 Search for a local minimum.
 Step number   2 out of a maximum of  102
 All quantities printed in internal units (Hartrees-Bohrs-Radians)
 Mixed Optimization -- RFO/linear search
 Update second derivatives using D2CorX and points    1    2
 DE= -9.38D-03 DEPred=-1.00D-02 R= 9.35D-01
 TightC=F SS=  1.41D+00  RLast= 3.34D-01 DXNew= 5.0454D-01 1.0032D+00
 Trust test= 9.35D-01 RLast= 3.34D-01 DXMaxT set to 5.05D-01
 ITU=  1  0
 Use linear search instead of GDIIS.
     Eigenvalues ---    0.00918   0.00926   0.03042   0.03043   0.04950
     Eigenvalues ---    0.05026   0.05027   0.05093   0.05830   0.05831
     Eigenvalues ---    0.06268   0.06443   0.10053   0.10167   0.10262
     Eigenvalues ---    0.10455   0.11146   0.11146   0.11222   0.11873
     Eigenvalues ---    0.13086   0.13167   0.13956   0.15983   0.20941
     Eigenvalues ---    0.21908   0.21913   0.27566   0.28541   0.30690
     Eigenvalues ---    0.31896   0.31898   0.31900   0.32026   0.32168
     Eigenvalues ---    0.32169   0.32171   0.40315   0.40324   0.40343
     Eigenvalues ---    0.41700   0.43860   0.45121   0.45122   0.46765
 RFO step:  Lambda=-1.63751784D-03 EMin= 9.17613926D-03
 Quartic linear search produced a step of  0.02850.
 Iteration  1 RMS(Cart)=  0.04460489 RMS(Int)=  0.00090816
 Iteration  2 RMS(Cart)=  0.00113470 RMS(Int)=  0.00012105
 Iteration  3 RMS(Cart)=  0.00000049 RMS(Int)=  0.00012105
 Variable       Old X    -DE/DX   Delta X   Delta X   Delta X     New X
                                 (Linear)    (Quad)   (Total)
    R1        3.09930   0.00017   0.00051  -0.00042   0.00013   3.09943
    R2        3.09931   0.00016   0.00051  -0.00042   0.00013   3.09943
    R3        3.09929   0.00017   0.00051  -0.00042   0.00013   3.09943
    R4        3.09934   0.00016   0.00051  -0.00044   0.00011   3.09944
    R5        2.70658  -0.00443   0.00089  -0.00931  -0.00842   2.69816
    R6        2.70658  -0.00443   0.00089  -0.00931  -0.00842   2.69816
    R7        2.07087  -0.00115  -0.00112  -0.00460  -0.00573   2.06515
    R8        2.06282  -0.00159  -0.00121  -0.00605  -0.00726   2.05556
    R9        2.87672   0.00225  -0.00054   0.01031   0.00970   2.88642
   R10        2.07087  -0.00115  -0.00112  -0.00461  -0.00573   2.06514
   R11        2.06281  -0.00159  -0.00121  -0.00605  -0.00726   2.05555
   R12        2.70667  -0.00445   0.00089  -0.00936  -0.00847   2.69819
   R13        2.07088  -0.00115  -0.00112  -0.00461  -0.00574   2.06515
   R14        2.06282  -0.00159  -0.00121  -0.00605  -0.00726   2.05556
   R15        2.87678   0.00224  -0.00054   0.01028   0.00966   2.88644
   R16        2.07089  -0.00115  -0.00113  -0.00461  -0.00574   2.06515
   R17        2.06283  -0.00160  -0.00121  -0.00606  -0.00727   2.05555
   R18        2.70655  -0.00442   0.00089  -0.00930  -0.00841   2.69814
    A1        2.03272   0.00223   0.00145   0.01757   0.01913   2.05184
    A2        1.98546  -0.00047   0.00043  -0.00852  -0.00801   1.97745
    A3        1.72282  -0.00158  -0.00174  -0.00802  -0.00979   1.71303
    A4        1.72286  -0.00159  -0.00174  -0.00804  -0.00982   1.71304
    A5        1.98544  -0.00047   0.00044  -0.00851  -0.00800   1.97744
    A6        2.03272   0.00223   0.00145   0.01757   0.01913   2.05184
    A7        1.88259   0.00127   0.00165   0.01472   0.01618   1.89877
    A8        1.88256   0.00127   0.00165   0.01473   0.01619   1.89875
    A9        1.90912  -0.00088   0.00055  -0.00544  -0.00476   1.90437
   A10        1.92490  -0.00065   0.00115  -0.01800  -0.01680   1.90810
   A11        1.85184  -0.00022  -0.00023   0.00433   0.00375   1.85559
   A12        1.89290   0.00020  -0.00006   0.00709   0.00688   1.89978
   A13        1.92239   0.00084  -0.00112   0.00969   0.00855   1.93093
   A14        1.96223   0.00066  -0.00021   0.00184   0.00175   1.96398
   A15        1.92242   0.00084  -0.00112   0.00967   0.00853   1.93094
   A16        1.96227   0.00066  -0.00021   0.00181   0.00172   1.96399
   A17        1.85184  -0.00022  -0.00022   0.00433   0.00374   1.85558
   A18        1.89292   0.00020  -0.00006   0.00708   0.00688   1.89980
   A19        1.90908  -0.00087   0.00055  -0.00541  -0.00473   1.90435
   A20        1.92486  -0.00065   0.00115  -0.01797  -0.01678   1.90808
   A21        1.90914  -0.00088   0.00055  -0.00545  -0.00477   1.90437
   A22        1.92490  -0.00065   0.00115  -0.01801  -0.01682   1.90809
   A23        1.85183  -0.00022  -0.00022   0.00434   0.00376   1.85559
   A24        1.89291   0.00020  -0.00006   0.00709   0.00688   1.89979
   A25        1.92237   0.00084  -0.00112   0.00971   0.00857   1.93093
   A26        1.96224   0.00066  -0.00021   0.00184   0.00174   1.96398
   A27        1.92235   0.00084  -0.00112   0.00972   0.00858   1.93093
   A28        1.96224   0.00066  -0.00021   0.00183   0.00174   1.96398
   A29        1.85184  -0.00022  -0.00023   0.00434   0.00376   1.85559
   A30        1.89289   0.00020  -0.00006   0.00710   0.00689   1.89978
   A31        1.90916  -0.00088   0.00055  -0.00546  -0.00478   1.90438
   A32        1.92492  -0.00065   0.00115  -0.01802  -0.01682   1.90810
   A33        1.88254   0.00128   0.00165   0.01475   0.01621   1.89875
   A34        1.88258   0.00127   0.00165   0.01472   0.01618   1.89876
    D1        1.92582  -0.00072   0.00049   0.00373   0.00427   1.93008
    D2       -2.37066  -0.00160  -0.00047  -0.00085  -0.00134  -2.37199
    D3       -0.20541  -0.00017   0.00038   0.01094   0.01145  -0.19396
    D4        1.92580  -0.00073   0.00049   0.00371   0.00425   1.93004
    D5       -0.20548  -0.00017   0.00038   0.01095   0.01145  -0.19403
    D6       -2.37075  -0.00160  -0.00047  -0.00083  -0.00132  -2.37207
    D7       -2.37069  -0.00160  -0.00047  -0.00084  -0.00133  -2.37202
    D8       -0.20542  -0.00017   0.00038   0.01093   0.01144  -0.19398
    D9        1.92584  -0.00073   0.00049   0.00371   0.00424   1.93008
   D10       -0.20549  -0.00017   0.00038   0.01096   0.01146  -0.19403
   D11       -2.37073  -0.00160  -0.00047  -0.00083  -0.00132  -2.37205
   D12        1.92576  -0.00072   0.00049   0.00374   0.00427   1.93003
   D13       -1.54846  -0.00103   0.00031  -0.04266  -0.04235  -1.59081
   D14        2.65426  -0.00033  -0.00059  -0.03700  -0.03777   2.61650
   D15        0.52477  -0.00062  -0.00085  -0.03160  -0.03262   0.49214
   D16       -1.54840  -0.00103   0.00031  -0.04263  -0.04232  -1.59073
   D17        2.65434  -0.00033  -0.00059  -0.03699  -0.03776   2.61658
   D18        0.52484  -0.00062  -0.00085  -0.03160  -0.03262   0.49223
   D19        1.39092   0.00003   0.00191   0.04536   0.04716   1.43808
   D20       -2.77900   0.00132   0.00085   0.06243   0.06326  -2.71574
   D21       -0.67352   0.00076   0.00199   0.04423   0.04610  -0.62742
   D22       -2.82778  -0.00070   0.00183   0.04647   0.04820  -2.77959
   D23       -0.71452   0.00059   0.00076   0.06354   0.06429  -0.65023
   D24        1.39096   0.00003   0.00191   0.04534   0.04714   1.43810
   D25       -0.71459   0.00059   0.00077   0.06357   0.06433  -0.65026
   D26        1.39867   0.00188  -0.00029   0.08064   0.08043   1.47910
   D27       -2.77904   0.00132   0.00085   0.06244   0.06328  -2.71576
   D28        0.52479  -0.00062  -0.00085  -0.03158  -0.03260   0.49219
   D29       -1.54847  -0.00103   0.00031  -0.04261  -0.04230  -1.59077
   D30        2.65431  -0.00033  -0.00059  -0.03700  -0.03777   2.61654
   D31        1.39100   0.00003   0.00191   0.04535   0.04715   1.43815
   D32       -2.77902   0.00132   0.00085   0.06248   0.06331  -2.71571
   D33       -0.67349   0.00076   0.00199   0.04424   0.04612  -0.62737
   D34       -2.82770  -0.00070   0.00182   0.04646   0.04818  -2.77951
   D35       -0.71454   0.00059   0.00077   0.06359   0.06435  -0.65019
   D36        1.39099   0.00003   0.00191   0.04535   0.04715   1.43815
   D37       -0.71450   0.00059   0.00076   0.06357   0.06433  -0.65017
   D38        1.39865   0.00188  -0.00029   0.08070   0.08050   1.47915
   D39       -2.77900   0.00132   0.00085   0.06247   0.06330  -2.71570
   D40        0.52483  -0.00062  -0.00085  -0.03161  -0.03263   0.49219
   D41       -1.54839  -0.00103   0.00031  -0.04268  -0.04237  -1.59076
   D42        2.65434  -0.00033  -0.00059  -0.03702  -0.03779   2.61655
         Item               Value     Threshold  Converged?
 Maximum Force            0.004446     0.000450     NO 
 RMS     Force            0.001352     0.000300     NO 
 Maximum Displacement     0.141717     0.001800     NO 
 RMS     Displacement     0.044662     0.001200     NO 
 Predicted change in Energy=-9.042114D-04
 GradGradGradGradGradGradGradGradGradGradGradGradGradGradGradGradGradGrad

                          Input orientation:                          
 ---------------------------------------------------------------------
 Center     Atomic      Atomic             Coordinates (Angstroms)
 Number     Number       Type             X           Y           Z
 ---------------------------------------------------------------------
      1         14           0       -0.000004   -0.000005    0.000003
      2          8           0        1.638810    0.050285    0.042927
      3          8           0       -0.707249   -0.521673   -1.384829
      4          6           0       -1.309152   -1.793618   -1.142982
      5          1           0       -0.587421   -2.580850   -1.374602
      6          1           0       -2.176117   -1.910375   -1.789473
      7          6           0       -1.676764   -1.819546    0.339321
      8          1           0       -2.629675   -1.312070    0.508725
      9          1           0       -1.741877   -2.830709    0.734936
     10          6           0        2.056616    1.415388    0.066373
     11          1           0        2.207810    1.760979   -0.959288
     12          1           0        2.997611    1.494619    0.606242
     13          6           0        0.929315    2.197744    0.737332
     14          1           0        1.009362    2.131954    1.825238
     15          1           0        0.920413    3.246377    0.448376
     16          8           0       -0.641948   -1.110903    1.021713
     17          8           0       -0.289629    1.582305    0.320188
 ---------------------------------------------------------------------
                    Distance matrix (angstroms):
                    1          2          3          4          5
     1  Si   0.000000
     2  O    1.640147   0.000000
     3  O    1.640149   2.805283   0.000000
     4  C    2.497465   3.673804   1.427803   0.000000
     5  H    2.982509   3.726709   2.062686   1.092830   0.000000
     6  H    3.403998   4.664283   2.061505   1.087755   1.773587
     7  C    2.497476   3.818002   2.365824   1.527427   2.168822
     8  H    2.982530   4.504769   2.811761   2.168827   3.054100
     9  H    3.403987   4.495335   3.300834   2.188466   2.417716
    10  C    2.497485   1.427802   3.673845   4.805065   5.003724
    11  H    2.982574   2.062685   3.726815   5.003791   5.180471
    12  H    3.403986   2.061496   4.664309   5.693900   5.778031
    13  C    2.497477   2.365832   3.818002   4.947453   5.440194
    14  H    2.982541   2.811794   4.504777   5.440216   5.916013
    15  H    3.403998   3.300831   4.495345   5.736282   6.289149
    16  O    1.640146   2.740116   2.478488   2.365834   2.811769
    17  O    1.640155   2.478475   2.740112   3.818004   4.504759
                    6          7          8          9         10
     6  H    0.000000
     7  C    2.188462   0.000000
     8  H    2.417725   1.092826   0.000000
     9  H    2.721804   1.087751   1.773590   0.000000
    10  C    5.693935   4.947466   5.440224   5.736276   0.000000
    11  H    5.778136   5.440262   5.916076   6.289198   1.092828
    12  H    6.640850   5.736263   6.289146   6.417769   1.087754
    13  C    5.736296   4.805068   5.003746   5.693910   1.527441
    14  H    6.289183   5.003755   5.180453   5.778070   2.168828
    15  H    6.417831   5.693926   5.778080   6.640849   2.188471
    16  O    3.300848   1.427823   2.062689   2.061509   3.817993
    17  O    4.495366   3.673839   3.726764   4.664304   2.365830
                   11         12         13         14         15
    11  H    0.000000
    12  H    1.773590   0.000000
    13  C    2.168832   2.188473   0.000000
    14  H    3.054093   2.417701   1.092828   0.000000
    15  H    2.417709   2.721824   1.087753   1.773583   0.000000
    16  O    4.504796   4.495303   3.673811   3.726740   4.664287
    17  O    2.811794   3.300827   1.427795   2.062684   2.061497
                   16         17
    16  O    0.000000
    17  O    2.805287   0.000000
 Stoichiometry    C4H8O4Si
 Framework group  C1[X(C4H8O4Si)]
 Deg. of freedom    45
 Full point group                 C1      NOp   1
 Largest Abelian subgroup         C1      NOp   1
 Largest concise Abelian subgroup C1      NOp   1
                         Standard orientation:                         
 ---------------------------------------------------------------------
 Center     Atomic      Atomic             Coordinates (Angstroms)
 Number     Number       Type             X           Y           Z
 ---------------------------------------------------------------------
      1         14           0       -0.000005    0.000001    0.000003
      2          8           0        1.074411    0.850131   -0.901658
      3          8           0       -1.074426    0.850087    0.901703
      4          6           0       -2.377835    0.682069    0.343568
      5          1           0       -2.561930    1.478595   -0.381644
      6          1           0       -3.120131    0.749644    1.135805
      7          6           0       -2.377845   -0.682064   -0.343582
      8          1           0       -2.561960   -1.478593    0.381617
      9          1           0       -3.120107   -0.749625   -1.135848
     10          6           0        2.377842    0.682068   -0.343589
     11          1           0        2.562006    1.478589    0.381608
     12          1           0        3.120091    0.749609   -1.135873
     13          6           0        2.377835   -0.682075    0.343571
     14          1           0        2.561958   -1.478596   -0.381637
     15          1           0        3.120118   -0.749638    1.135820
     16          8           0       -1.074406   -0.850110   -0.901691
     17          8           0        1.074426   -0.850105    0.901683
 ---------------------------------------------------------------------
 Rotational constants (GHZ):           3.5312035           1.0652316           1.0301126
 Standard basis: def2TZVPP (5D, 7F)
 There are   456 symmetry adapted cartesian basis functions of A   symmetry.
 There are   402 symmetry adapted basis functions of A   symmetry.
   402 basis functions,   613 primitive gaussians,   456 cartesian basis functions
    39 alpha electrons       39 beta electrons
       nuclear repulsion energy       611.2829329339 Hartrees.
 NAtoms=   17 NActive=   17 NUniq=   17 SFac= 1.00D+00 NAtFMM=   60 NAOKFM=F Big=F
 Integral buffers will be    131072 words long.
 Raffenetti 2 integral format.
 Two-electron integral symmetry is turned on.
 Nuclear repulsion after empirical dispersion term =      611.2753397007 Hartrees.
 One-electron integrals computed using PRISM.
   1 Symmetry operations used in ECPInt.
 ECPInt:  NShTT=   11325 NPrTT=   31861 LenC2=   10810 LenP2D=   24143.
 LDataN:  DoStor=T MaxTD1= 6 Len=  172
 NBasis=   402 RedAO= T EigKep=  2.70D-04  NBF=   402
 NBsUse=   402 1.00D-06 EigRej= -1.00D+00 NBFU=   402
 Initial guess from the checkpoint file:  "QBiL2_EG_20kmmx_confOpt_1.chk"
 B after Tr=    -0.000000   -0.000000    0.000000
         Rot=    1.000000   -0.000007    0.000000    0.000001 Ang=  -0.00 deg.
 ExpMin= 7.01D-02 ExpMax= 4.48D+04 ExpMxC= 1.53D+03 IAcc=3 IRadAn=         5 AccDes= 0.00D+00
 Harris functional with IExCor= 4639 and IRadAn=       5 diagonalized for initial guess.
 HarFok:  IExCor= 4639 AccDes= 0.00D+00 IRadAn=         5 IDoV= 1 UseB2=F ITyADJ=14
 ICtDFT=  3500011 ScaDFX=  1.000000  1.000000  1.000000  1.000000
 FoFCou: FMM=F IPFlag=           0 FMFlag=      100000 FMFlg1=           0
         NFxFlg=           0 DoJE=T BraDBF=F KetDBF=T FulRan=T
         wScrn=  0.000000 ICntrl=       500 IOpCl=  0 I1Cent=   200000004 NGrid=           0
         NMat0=    1 NMatS0=      1 NMatT0=    0 NMatD0=    1 NMtDS0=    0 NMtDT0=    0
 Petite list used in FoFCou.
 Requested convergence on RMS density matrix=1.00D-08 within 128 cycles.
 Requested convergence on MAX density matrix=1.00D-06.
 Requested convergence on             energy=1.00D-06.
 No special actions if energy rises.
 Integral accuracy reduced to 1.0D-05 until final iterations.
 Initial convergence to 1.0D-05 achieved.  Increase integral accuracy.
 SCF Done:  E(RwB97XD) =  -747.838283004     A.U. after   10 cycles
            NFock= 10  Conv=0.96D-08     -V/T= 2.0035
   1 Symmetry operations used in ECPInt.
 ECPInt:  NShTT=   11325 NPrTT=   31861 LenC2=   10810 LenP2D=   24143.
 LDataN:  DoStor=T MaxTD1= 7 Len=  274
 Calling FoFJK, ICntrl=      2127 FMM=F ISym2X=0 I1Cent= 0 IOpClX= 0 NMat=1 NMatS=1 NMatT=0.
 ***** Axes restored to original set *****
 -------------------------------------------------------------------
 Center     Atomic                   Forces (Hartrees/Bohr)
 Number     Number              X              Y              Z
 -------------------------------------------------------------------
      1       14           0.000000384    0.000006880   -0.000000696
      2        8          -0.000906665    0.001923564    0.000103129
      3        8          -0.000310851   -0.001309468    0.001653190
      4        6           0.001786212    0.001745881   -0.001581481
      5        1           0.000044805   -0.000559323   -0.000439104
      6        1          -0.001073622    0.000427523   -0.000183125
      7        6           0.000961215    0.001574554    0.002323350
      8        1          -0.000637895   -0.000156315    0.000279681
      9        1           0.000595142   -0.001007104    0.000054722
     10        6           0.000118827   -0.002711385   -0.001167770
     11        1           0.000532046    0.000267198   -0.000392448
     12        1           0.000458235   -0.000114556    0.001070546
     13        6          -0.002856074   -0.000604008    0.000431380
     14        1           0.000058904    0.000447891    0.000551792
     15        1           0.000020270    0.000694945   -0.000942462
     16        8          -0.000838189   -0.000080055   -0.001964954
     17        8           0.002047255   -0.000546222    0.000204250
 -------------------------------------------------------------------
 Cartesian Forces:  Max     0.002856074 RMS     0.001090712

 GradGradGradGradGradGradGradGradGradGradGradGradGradGradGradGradGradGrad
 Berny optimization.
 Using GEDIIS/GDIIS optimizer.
 FormGI is forming the generalized inverse of G from B-inverse, IUseBI=4.
 Internal  Forces:  Max     0.001734321 RMS     0.000616709
 Search for a local minimum.
 Step number   3 out of a maximum of  102
 All quantities printed in internal units (Hartrees-Bohrs-Radians)
 Mixed Optimization -- En-DIIS/RFO-DIIS
 Update second derivatives using D2CorX and points    1    2    3
 DE= -1.15D-03 DEPred=-9.04D-04 R= 1.27D+00
 TightC=F SS=  1.41D+00  RLast= 2.93D-01 DXNew= 8.4853D-01 8.7841D-01
 Trust test= 1.27D+00 RLast= 2.93D-01 DXMaxT set to 8.49D-01
 ITU=  1  1  0
 Use linear search instead of GDIIS.
     Eigenvalues ---    0.00580   0.00909   0.03031   0.03032   0.04906
     Eigenvalues ---    0.05035   0.05036   0.05084   0.05745   0.05745
     Eigenvalues ---    0.06165   0.06556   0.10020   0.10206   0.10336
     Eigenvalues ---    0.10510   0.11226   0.11227   0.11290   0.12259
     Eigenvalues ---    0.12571   0.13070   0.13197   0.15994   0.21191
     Eigenvalues ---    0.22019   0.22026   0.27652   0.28382   0.31896
     Eigenvalues ---    0.31898   0.31900   0.31961   0.32168   0.32169
     Eigenvalues ---    0.32171   0.34674   0.40313   0.40321   0.40542
     Eigenvalues ---    0.41982   0.43876   0.45122   0.45123   0.45761
 RFO step:  Lambda=-4.34629242D-04 EMin= 5.80319465D-03
 Quartic linear search produced a step of  0.69624.
 Iteration  1 RMS(Cart)=  0.05451256 RMS(Int)=  0.00134904
 Iteration  2 RMS(Cart)=  0.00168679 RMS(Int)=  0.00025813
 Iteration  3 RMS(Cart)=  0.00000108 RMS(Int)=  0.00025813
 Iteration  4 RMS(Cart)=  0.00000000 RMS(Int)=  0.00025813
 Variable       Old X    -DE/DX   Delta X   Delta X   Delta X     New X
                                 (Linear)    (Quad)   (Total)
[...]
 1\1\GINC-GRA1205\Freq\RwB97XD\def2TZVPP\C4H8O4Si1\ARHENDER\22-Jan-2024
 \0\\#N Geom=AllCheck Guess=TCheck SCRF=Check GenChk RwB97XD/def2TZVPP 
 Freq\\Q(=L)2 conf opt\\0,1\Si,0.0000041517,-0.0000050189,0.0000109662\
 O,1.6351141644,0.0489756534,0.0581430071\O,-0.7184627364,-0.5128151382
 ,-1.3784638447\C,-1.3528021273,-1.7660017786,-1.1570098724\H,-0.684058
 3549,-2.5694943976,-1.4767838947\H,-2.2665356074,-1.8146349561,-1.7484
 239089\C,-1.6441513596,-1.8605239079,0.3503741353\H,-2.6200689038,-1.4
 287321457,0.5874700839\H,-1.6227283396,-2.8916467828,0.7016159381\C,2.
 0777910242,1.3991449165,0.1127681967\H,2.331294546,1.7359759291,-0.895
 8720847\H,2.9691599661,1.4590925717,0.7363963913\C,0.9191855985,2.2273
 553284,0.6939138096\H,0.9728569122,2.2622232406,1.7852333129\H,0.92013
 35536,3.2471636368,0.3104626623\O,-0.6297608326,-1.1186363666,1.015600
 5059\O,-0.2868716551,1.582459216,0.3047645961\\Version=ES64L-G16RevC.0
 1\State=1-A\HF=-747.8388851\RMSD=1.583e-09\RMSF=2.882e-05\ZeroPoint=0.
 1344078\Thermal=0.1427011\ETot=-747.696184\HTot=-747.6952398\GTot=-747
 .7380717\Dipole=-0.0000047,-0.0000108,-0.0000015\DipoleDeriv=2.2619906
 ,0.8304049,0.1513448,0.8304035,2.5667649,0.2452461,0.1513434,0.2452443
 ,1.6427161,-1.1478087,-0.3872404,-0.0250145,-0.3806294,-1.1616946,-0.0
 843772,-0.030008,-0.0848744,-0.4735502,-0.8014198,-0.4792732,-0.155372
 2,-0.4750324,-1.1560446,-0.1349014,-0.1541903,-0.1419372,-0.8255859,0.
 4172943,0.1845575,0.0570848,0.2665576,0.7609908,0.0995284,-0.0603245,-
 0.080824,0.2259901,-0.0354773,0.0970222,0.0630759,0.0209432,-0.1279031
 ,-0.0586087,0.0325417,-0.0288679,0.0100823,-0.0947374,-0.0673422,-0.09
 96111,-0.019952,0.0192208,0.0039228,-0.0807669,-0.0371847,-0.0102763,0
 .634384,0.2832305,0.0811565,0.1977918,0.4793026,0.0394404,0.2140289,0.
 2070134,0.2905851,-0.1633662,-0.0073886,0.0324064,0.0784968,0.0026611,
 -0.0385757,0.0188524,-0.0318821,0.007408,0.0317764,-0.0057618,-0.01842
 59,-0.0640077,-0.1448218,0.0490986,0.0115336,0.0498744,0.0272535,0.364
 478,0.1495691,0.0051734,0.377096,0.7362887,0.0050754,0.0138492,-0.0294
 593,0.3035111,0.0144461,-0.0220853,0.0245944,-0.053146,-0.0429279,0.03
 11943,0.0927663,0.0758343,-0.124818,-0.1027078,-0.0588247,-0.0634295,-
 0.0198695,0.0169096,-0.0086953,-0.1126067,-0.027533,0.0000041,0.588058
 2,0.3926126,0.1669948,0.1685246,0.4506268,0.0719303,0.1428559,0.119244
 7,0.365593,-0.0124625,-0.0361221,-0.010595,-0.0148682,0.0258057,0.0076
 802,-0.0346781,-0.073395,-0.1666434,0.0272471,-0.0153249,-0.0034765,-0
 .0434243,-0.1492417,0.015185,-0.0031035,0.0743544,0.0362002,-0.9748095
 ,-0.5307645,-0.0765018,-0.5365601,-1.0389174,0.0004477,-0.0706946,0.00
 17102,-0.7693228,-1.0068855,-0.3272692,-0.1294045,-0.3323239,-1.237019
 7,-0.2435908,-0.1313986,-0.2373183,-0.5391469\Polar=75.0247555,12.8673
 375,79.4610302,1.6536602,4.2506377,65.7866863\Quadrupole=0.8706385,3.2
 747455,-4.145384,7.0068112,0.8724207,2.332937\PG=C01 [X(C4H8O4Si1)]\NI
 mag=0\\0.52705950,0.14055547,0.58634474,0.04421216,0.02939596,0.412622
 19,-0.25738810,0.00110497,-0.00620435,0.39995022,-0.00469048,-0.046929
 24,-0.00254517,0.07625282,0.33861643,-0.00654951,-0.00117726,-0.037531
 64,0.00597563,0.01440955,0.06686398,-0.07931789,-0.03032501,-0.0798063
 0,-0.00956530,-0.01073979,-0.01142712,0.17534078,-0.03278161,-0.062405
 04,-0.05462812,-0.00553173,0.00410043,-0.00697133,0.15228625,0.3191786
 6,-0.07656225,-0.05026707,-0.20012657,-0.00327467,-0.00359487,0.001892
 38,0.08302645,0.02961012,0.31091097,-0.01337223,-0.01640611,-0.0251994
 8,-0.00001642,0.00081217,-0.00020126,-0.09552542,-0.05763874,0.0022425
 6,0.60153314,-0.02112622,-0.01913077,-0.03709703,0.00494459,0.00207554
 ,0.00460757,-0.05983587,-0.18575333,0.00997522,-0.04575724,0.50899952,
 -0.01165882,-0.01778216,-0.00045362,-0.00106897,0.00020673,-0.00148978
 ,0.01418498,0.02255247,-0.07222749,0.06297215,0.06490193,0.49880677,0.
 00102959,-0.00188586,0.00093132,0.00022912,0.00040248,0.00020684,0.013
 40361,-0.02028347,-0.00573575,-0.16061349,0.12114570,0.04525977,0.1643
 1582,0.00471388,-0.00202369,0.00650612,-0.00073118,0.00009103,-0.00028
 054,0.00259935,-0.03974044,-0.00893990,0.11683327,-0.17275251,-0.05462
 382,-0.12102827,0.20615670,0.00012731,-0.00041955,-0.00126065,0.000013
 96,0.00017307,0.00003898,-0.00271186,0.00596874,0.00641696,0.04387567,
 -0.05496893,-0.07667289,-0.05269918,0.05687122,0.07722348,-0.00021103,
 0.00034809,0.00440776,-0.00061762,-0.00043129,-0.00064251,-0.01221427,
 -0.01299575,-0.00666385,-0.23761430,0.00057939,-0.12189964,-0.01563111
 ,0.00134609,-0.01201718,0.25630423,-0.00170336,-0.00160780,0.00395338,
 -0.00109260,-0.00041399,-0.00106252,-0.03479645,-0.01406969,-0.0177718
 4,0.00772822,-0.04803533,0.00301801,0.01907495,0.00262584,0.01264672,0
 .00870601,0.05840858,0.00124664,0.00215756,-0.00262740,-0.00017621,-0.
 00030617,0.00040349,0.00812189,0.00229448,0.00729368,-0.12311238,-0.00
 378435,-0.13274856,0.00868644,-0.00033338,0.00670104,0.13165668,0.0035
 0320,0.13805859,-0.01991179,-0.02950001,0.01946803,0.00223774,0.001013
 63,-0.00133894,-0.01099303,-0.01455562,0.00220683,-0.08439588,0.013437
 86,0.01993169,-0.00519277,-0.00224014,0.02489724,0.00665391,0.00221994
 ,-0.02603463,0.55177874,-0.02442778,-0.02939488,0.01819488,0.00242891,
 0.00291337,-0.00180736,-0.02562490,-0.02570233,0.02462654,0.01180982,-
 0.07188773,-0.01055961,0.00280662,0.00335582,-0.02099455,0.00186147,0.
 00154346,-0.00086041,-0.03203313,0.61506894,0.00434431,0.00018830,0.01
 635021,0.00351416,0.00304060,-0.00251573,0.00148051,0.01244886,-0.0213
 8792,0.03668687,0.01015351,-0.16576445,0.00139098,0.00227216,-0.009496
 24,0.00397303,-0.00284986,-0.01111423,-0.04834223,-0.04989648,0.442489
 27,-0.00123873,0.00533279,-0.00491685,-0.00094843,-0.00143915,0.000500
 83,0.00086971,-0.00061144,0.00078450,-0.00269079,0.00372811,0.00056005
 ,0.00103299,-0.00048798,0.00061998,0.00127003,-0.00015828,0.00029122,-
 0.24210959,0.09640863,0.05444895,0.27509794,-0.00215318,0.00172322,-0.
 00168013,-0.00042518,-0.00077505,0.00034187,0.00135293,0.00114788,-0.0
 0002859,-0.00248704,0.00050862,0.00038537,-0.00064009,0.00097020,0.000
 03917,0.00001521,0.00059927,-0.00079294,0.10075692,-0.10280914,-0.0212
 8858,-0.09679490,0.10259174,-0.00012840,0.00195279,-0.00273925,-0.0004
 7360,-0.00059809,0.00034158,-0.00057299,0.00165674,0.00161046,0.027684
 22,-0.01818893,-0.00915096,0.00144220,0.00107505,-0.00570739,-0.000220
 62,-0.00003877,0.00122121,0.05567181,-0.02081024,-0.06512057,-0.051196
 79,0.02913052,0.07000662,-0.00033427,-0.00084712,-0.00272572,-0.000586
 89,-0.00015628,0.00027134,0.00041518,-0.00093081,0.00180175,0.00061773
 ,-0.00597476,0.00478838,0.00051463,-0.00021060,-0.00022667,-0.00016455
 ,-0.00026239,0.00071708,-0.05116796,0.02297943,-0.00578793,0.00051254,
 0.02672428,-0.00960763,0.05693551,0.00151781,0.00102421,-0.00377143,-0
 .00065244,-0.00033484,0.00022894,0.00080536,0.00202164,0.00005957,0.00
 181509,0.00040983,-0.00000623,-0.00033851,0.00121403,0.00015144,-0.000
 74558,-0.00032437,0.00065189,0.01510685,-0.28500822,0.08478174,0.00193
 705,-0.01104126,0.00569166,-0.00749097,0.31113851,-0.00097390,-0.00081
 099,-0.00513619,-0.00006730,-0.00000956,0.00046096,0.00371751,0.003734
 82,-0.00485400,-0.00183662,0.02827757,-0.00394424,0.00061646,-0.000214
 13,0.00136185,-0.00045575,-0.00063726,-0.00125756,-0.00132125,0.088895
 04,-0.08222250,0.00142123,-0.00755198,0.00422455,0.00570019,-0.0883381
 4,0.08469768,-0.03595495,-0.02060767,-0.00140868,-0.08646333,-0.038515
 32,0.00250856,0.00059957,0.00111956,-0.00000984,-0.00012620,-0.0003373
 5,0.00023695,-0.00003502,0.00000319,-0.00004489,0.00009526,0.00005695,
 -0.00000032,-0.00066664,-0.00007174,0.00002809,0.00006096,-0.00004416,
 -0.00002496,0.00002618,0.00007536,0.00000602,0.58266960,-0.04439937,0.
 00055399,0.00084713,-0.05515999,-0.20011705,-0.00350056,0.00632138,0.0
 0106560,0.00207861,-0.00031822,-0.00191301,0.00032471,-0.00017805,0.00
 006174,-0.00008970,0.00034234,0.00037164,0.00008561,-0.00122464,-0.000
 92200,-0.00098006,0.00055428,0.00015110,0.00016264,0.00012051,0.000211
 59,-0.00002213,0.03980664,0.42723827,-0.00493337,0.00132641,0.00244426
 ,-0.00281495,-0.00299693,-0.06692641,-0.00242119,-0.00000081,-0.001095
 84,0.00011082,0.00041610,-0.00022021,0.00003957,-0.00007839,0.00005215
 ,-0.00008129,-0.00012033,0.00000274,0.00044316,-0.00019037,-0.00052896
 ,0.00017982,0.00013413,0.00009444,0.00003457,0.00000738,0.00002098,0.0
 4162941,-0.03379624,0.59943078,0.00134313,-0.00142228,0.00213805,-0.00
 257553,-0.01179052,0.00972493,0.00008229,0.00023653,-0.00025816,-0.000
 02811,-0.00014196,0.00000292,0.00000447,0.00001518,0.00000348,0.000003
 84,0.00001392,-0.00001627,0.00007707,0.00013765,0.00016576,-0.00005393
 ,-0.00002764,-0.00002805,-0.00001796,-0.00002165,-0.00002814,-0.068049
 77,-0.01250106,0.04654905,0.06711192,0.00654187,-0.00326353,0.00303393
 ,-0.02038359,-0.02831707,0.02798809,-0.00035005,0.00001973,-0.00048723
 ,-0.00005067,0.00006897,0.00001271,0.00001936,-0.00000398,0.00000712,-
 0.00002771,-0.00002271,-0.00003601,0.00019533,0.00032133,0.00042318,-0
 .00015633,-0.00008109,-0.00007731,-0.00004739,-0.00005990,-0.00003150,
 -0.01265684,-0.06330404,0.06377706,0.02105918,0.08725093,-0.00217413,-
 0.00015131,-0.00033433,0.00168110,0.00315889,0.01097279,0.00053902,0.0
 0025343,0.00025710,-0.00000837,-0.00016519,0.00003801,-0.00001722,0.00
 002360,-0.00000454,0.00003169,0.00003668,0.00000825,-0.00016817,-0.000
 11166,-0.00009190,0.00002917,-0.00000075,0.00000513,0.00001248,0.00002
 457,0.00000038,0.04950279,0.06722421,-0.27868481,-0.05770908,-0.074410
 21,0.29333285,0.00124779,0.00112629,-0.00042134,-0.00715791,-0.0081254
 3,-0.00358338,-0.00066257,-0.00059761,-0.00032933,0.00006271,0.0003198
 8,-0.00007766,0.00000852,-0.00005763,0.00000671,-0.00005233,-0.0000600
 3,-0.00000926,0.00014783,0.00010038,0.00010344,-0.00003842,0.00000119,
 -0.00001757,-0.00002490,-0.00004501,0.00000277,-0.22553015,-0.00424679
 ,-0.12448806,0.00732355,0.00091550,0.00446162,0.24452995,0.00355867,-0
 .00503773,-0.00224584,-0.03731040,-0.01655656,-0.01939493,-0.00161841,
 -0.00005227,-0.00043086,0.00003618,0.00040185,-0.00006853,0.00003646,-
 0.00002017,0.00001345,-0.00006449,-0.00009821,-0.00000815,0.00007497,0
 .00009570,0.00007194,-0.00007141,-0.00003549,-0.00001985,-0.00001336,-
 0.00001853,0.00001670,0.00392453,-0.04676225,0.00099979,0.00743904,0.0
 0285417,0.00433820,0.01129589,0.05880182,0.00260599,-0.00071448,-0.000
 65628,-0.00045820,-0.00406466,0.00472421,-0.00020472,-0.00001942,0.000
 08672,0.00004130,0.00012062,0.00000508,0.00000699,-0.00000809,0.000001
 03,-0.00001156,-0.00001340,-0.00000928,0.00006169,0.00003539,0.0000152
 1,-0.00002364,-0.00000765,-0.00000357,-0.00000380,-0.00001012,0.000009
 36,-0.12865717,-0.00283379,-0.14610596,-0.02476170,0.00048123,-0.01648
 194,0.13618616,0.00606172,0.14943969,0.01285128,-0.03293812,-0.0078014
 9,-0.01398756,-0.00129429,-0.00568340,0.00023799,0.00616339,0.00312606
 ,-0.00088931,-0.00130061,0.00056265,0.00009467,0.00060307,-0.00000587,
 0.00015037,0.00013576,0.00008984,-0.00149009,-0.00044428,-0.00068220,0
 .00005848,-0.00015725,0.00003929,0.00025870,0.00034601,0.00006515,-0.1
 2158370,0.05463985,0.03882013,-0.00338964,0.00379533,0.00021069,-0.015
 21247,0.00995893,0.01122987,0.40845824,-0.00949852,-0.04359854,-0.0133
 9081,0.00683497,-0.04807102,-0.01595425,0.00019432,0.00195028,0.000609
 56,-0.00015254,-0.00078565,0.00002787,-0.00001984,0.00019020,0.0000202
 3,0.00009211,0.00006848,0.00003120,-0.00041055,-0.00015705,-0.00036815
 ,-0.00000564,-0.00006070,0.00002811,0.00005401,0.00013322,0.00003399,0
 .02899199,-0.09190885,-0.01776229,-0.00480008,0.00368922,0.00113959,-0
 .00154114,0.00494796,0.00112221,0.00972104,0.60951531,-0.00269365,-0.0
 1517842,-0.00220941,-0.00392432,-0.00173553,0.00397509,-0.00012732,-0.
 00107692,0.00044714,0.00016940,-0.00077987,-0.00044262,-0.00010072,-0.
 00004211,0.00002162,0.00005450,0.00000730,0.00003990,-0.00079378,-0.00
 026308,-0.00061227,0.00008808,-0.00009332,0.00008109,0.00017583,0.0002
 1537,0.00007773,0.03164662,-0.01953930,-0.10855356,0.02496351,-0.01966
 352,-0.01163285,-0.01461192,0.01134450,0.00734776,0.00320294,-0.031651
 75,0.59136554,-0.00337354,0.00541268,-0.00180003,0.00204047,0.00063792
 ,-0.00086268,-0.00025168,-0.00166481,-0.00035998,0.00028775,0.00025704
 ,-0.00023554,-0.00005471,-0.00015371,0.00001660,-0.00004207,-0.0000504
 6,0.00000227,0.00007149,-0.00002772,-0.00001223,-0.00000376,0.00001423
 ,-0.00000237,-0.00001790,-0.00002967,0.00001882,-0.00199555,-0.0018883
 6,0.02715267,-0.00314645,0.00336336,0.00196657,0.00096005,-0.00023793,
 0.00001150,-0.04592788,0.00343059,-0.00076646,0.06218048,-0.00166519,0
 .00198250,-0.00240417,0.00025726,0.00077037,0.00152979,-0.00017615,-0.
 00096526,-0.00008907,0.00017490,0.00013258,-0.00013654,-0.00003081,-0.
 00008061,0.00001076,-0.00002473,-0.00003203,0.00001924,-0.00014866,-0.
 00005721,-0.00006443,0.00001911,0.00000661,0.00000265,0.00001270,0.000
 00527,0.00002441,0.00077822,0.00152034,-0.01828068,0.00207019,-0.00127
 991,-0.00149992,-0.00062357,0.00104217,0.00049462,0.00355050,-0.056805
 78,0.00367992,0.00455807,0.05453722,-0.00147230,0.00407388,-0.00086371
 ,-0.00006151,-0.00125502,0.00081728,-0.00026473,-0.00088658,-0.0001649
 5,0.00020833,0.00030744,-0.00011384,-0.00001456,-0.00008734,0.00000544
 ,-0.00003836,-0.00003684,-0.00000337,0.00013231,0.00000335,0.00006459,
 -0.00002237,0.00001980,-0.00000691,-0.00003243,-0.00004557,0.00000201,
 0.00127520,0.00275737,-0.01085813,0.00165206,-0.00153242,0.00072214,0.
 00059787,-0.00011226,0.00108828,-0.00355896,0.00009954,-0.30730467,0.0
 1155818,0.00657185,0.33097777,-0.00620216,0.00214922,0.00151501,-0.000
 48894,0.00555473,0.00246680,0.00025020,-0.00054747,-0.00049088,0.00007
 333,0.00007570,-0.00001589,-0.00002373,-0.00007165,-0.00000791,-0.0000
 0440,-0.00000504,-0.00002075,0.00030910,0.00006906,0.00013915,-0.00001
 319,0.00003451,-0.00000590,-0.00007044,-0.00006542,-0.00002542,0.00513
 036,0.01919870,-0.01002792,0.00126452,-0.00021855,0.00022789,-0.001025
 13,-0.00058318,-0.00011525,-0.04817874,0.01524841,-0.00275186,0.002384
 27,0.00060817,0.00102341,0.05686268,-0.00059663,0.00208045,0.00140525,
 0.00196433,-0.00161502,-0.00128734,-0.00031495,-0.00052201,-0.00048163
 ,0.00010263,0.00020840,-0.00004074,0.00000095,-0.00005759,0.00000653,-
 0.00003889,-0.00003108,-0.00002530,0.00034615,0.00011263,0.00019700,-0
 .00005885,0.00000779,-0.00002039,-0.00006175,-0.00007489,-0.00002106,-
 0.00044976,-0.01233761,0.00746413,-0.00030280,0.00100797,-0.00067658,0
 .00092632,-0.00078768,-0.00070791,0.00780087,-0.27816660,0.09158753,0.
 00114304,0.00209602,0.00009188,-0.00077981,0.30436740,-0.00010300,-0.0
 0129074,-0.00032452,0.00120238,-0.00367529,-0.00031321,-0.00005963,-0.
 00006011,-0.00018897,0.00001907,0.00000143,-0.00002298,-0.00000184,-0.
 00000566,0.00000383,-0.00000431,-0.00000664,0.00000141,0.00004992,-0.0
 0001672,0.00004791,-0.00000948,0.00000386,-0.00000522,-0.00001962,-0.0
 0001870,-0.00001448,0.00076279,-0.01258690,0.00429048,-0.00054070,-0.0
 0016372,0.00081801,0.00069705,-0.00013127,0.00006635,-0.00183670,0.098
 11020,-0.09205282,-0.00148563,0.03017266,-0.01078455,0.00337631,-0.096
 77288,0.09154123,-0.07084259,-0.05913373,0.05036014,-0.01189132,-0.017
 57563,0.00734997,0.01406209,-0.00047838,0.00674810,-0.00939829,-0.0109
 2171,-0.01253997,0.00132672,0.00007552,-0.00184821,0.00218583,0.000155
 81,-0.00131799,-0.14703922,-0.05699704,-0.05199656,-0.03193538,-0.0266
 0368,-0.02252518,-0.00657654,-0.01171274,-0.00681082,0.00029341,0.0062
 6325,0.00273231,-0.00069516,-0.00188861,0.00020398,-0.00038333,-0.0007
 5239,-0.00020122,-0.00002473,0.00098623,-0.00003281,-0.00000381,0.0001
 9161,-0.00014202,0.00030679,-0.00043473,-0.00009515,0.25542101,-0.0567
 2506,-0.13864830,0.09367610,-0.00749594,-0.00297614,0.00489428,0.00343
 178,0.01198482,0.02057797,-0.01896100,-0.01557651,-0.00622207,0.001221
 44,0.00115086,0.00045811,0.00150483,0.00159022,-0.00227959,-0.05867099
 ,-0.10813709,-0.04103178,-0.00741515,0.00688162,0.00022381,-0.03272965
 ,-0.01827146,-0.02292283,0.00015761,0.00194560,0.00074881,-0.00029128,
 -0.00072601,0.00019474,-0.00051186,-0.00008062,-0.00001552,0.00571298,
 0.00108220,0.00432897,-0.00031394,0.00013514,-0.00069080,-0.00145253,-
 0.00107384,-0.00043267,0.18274006,0.27562178,0.04733136,0.08913710,-0.
 13235867,-0.00054527,0.00252933,0.00559212,-0.00877449,0.00074203,-0.0
 2858424,-0.02688822,-0.00714243,-0.03310832,0.00047376,-0.00089728,0.0
 0115048,0.00233828,-0.00004272,-0.00619320,-0.04240618,-0.02651088,-0.
 09832629,-0.00289269,0.00140706,0.00513388,0.00445137,0.00005533,0.005
 85771,0.00009300,-0.00144519,0.00039641,-0.00018931,-0.00019903,0.0000
 3927,0.00019404,0.00043576,0.00000317,-0.00030845,0.00048461,-0.000488
 15,0.00029085,0.00035094,0.00022780,0.00001601,-0.00001011,0.00013893,
 0.02594839,-0.05734202,0.27438380,-0.05538400,0.03703640,0.00725175,-0
 .01277021,0.01008445,0.00128390,0.00326874,-0.01118829,-0.00625154,0.0
 0209579,0.00090745,-0.00100306,-0.00040931,-0.00120838,0.00000081,-0.0
 0011179,0.00003706,-0.00012424,0.00169107,0.00102461,0.00054591,0.0001
 2954,0.00043384,-0.00003345,-0.00031904,-0.00050155,-0.00002896,-0.048
 47002,-0.00733048,-0.01292474,0.00074576,-0.00011022,0.00120997,-0.004
 19318,0.00432688,0.00429376,-0.17142563,-0.04912537,-0.03449803,-0.013
 10715,-0.00955161,-0.01084013,-0.01057454,-0.00924612,-0.00195146,0.00
 519452,-0.01020132,0.00086756,0.30363946,0.04287970,-0.24166959,-0.039
 25005,0.03499519,-0.00246121,-0.00256399,-0.00320983,-0.01225868,-0.00
 544653,0.00245928,0.00302952,-0.00199012,-0.00030306,-0.00113744,0.000
 10616,-0.00046710,-0.00057227,-0.00031686,0.00563207,0.00066438,0.0029
 0205,-0.00078085,0.00021467,-0.00017037,-0.00116585,-0.00102484,-0.000
 42295,-0.00223122,-0.01585509,-0.00164778,0.00032757,0.00184590,0.0006
 2169,0.00112364,0.00130583,0.00007925,-0.06629319,-0.10202268,-0.02113
 978,-0.01445033,-0.00300744,-0.00927830,-0.03921484,-0.01521433,-0.013
 12684,-0.00391384,-0.01490227,-0.00155250,0.04461266,0.40306553,0.0073
 8158,-0.04044002,-0.04479441,0.00668213,-0.00273689,0.01269392,-0.0047
 0001,-0.01561840,-0.00028542,0.00323595,0.00336533,-0.00248990,-0.0004
 8507,-0.00123752,0.00016485,-0.00042688,-0.00058511,0.00022328,-0.0024
 5751,0.00026616,-0.00178612,0.00013800,-0.00001783,0.00001490,0.000450
 80,0.00032228,0.00071577,0.00245642,0.00131359,0.00624164,-0.00166836,
 0.00087764,0.00103645,0.00128887,-0.00087035,0.00047017,-0.03746955,-0
 .02257986,-0.08005951,-0.03549255,-0.02038203,-0.00380519,0.00469719,-
 0.00070838,0.00679861,0.00416705,0.00583449,0.00613530,0.05220195,0.09
 319692,0.09872566\\-0.00000028,-0.00000077,-0.00000025,-0.00000600,-0.
 00002582,0.00001577,-0.00000320,0.00003092,-0.00000237,0.00004680,0.00
 006684,0.00000251,-0.00000691,-0.00002600,-0.00001272,-0.00002948,-0.0
 0003491,0.00000102,0.00005356,0.00005483,0.00002394,-0.00002596,-0.000
 01381,0.00000391,-0.00002678,-0.00003313,-0.00001608,-0.00004060,-0.00
 007024,-0.00001064,0.00002158,0.00001869,-0.00000857,0.00002147,0.0000
 3898,0.00001045,-0.00006099,-0.00005264,-0.00001669,0.00001150,0.00002
 132,0.00001749,0.00003489,0.00002924,0.00000474,0.00003027,0.00000162,
 0.00001023,-0.00001988,-0.00000512,-0.00002274\\\@
 The archive entry for this job was punched.


 YOU SHOULDN'T LET PEOPLE DRIVE YOU CRAZY
 WHEN YOU KNOW IT'S WITHIN WALKING DISTANCE.
 Job cpu time:       0 days  3 hours 28 minutes  0.9 seconds.
 Elapsed time:       0 days  0 hours 13 minutes  2.3 seconds.
 File lengths (MBytes):  RWF=    221 Int=      0 D2E=      0 Chk=     14 Scr=      1
 Normal termination of Gaussian 16 at Mon Jan 22 15:15:28 2024.
