 Entering Gaussian System, Link 0=/opt/software/gaussian/g16.c01/g16
 Initial command:
 /opt/software/gaussian/g16.c01/l1.exe "/scratch/arhender/16442713/Gau-20331.inp" -scrdir="/scratch/arhender/16442713/"
 Entering Link 1 = /opt/software/gaussian/g16.c01/l1.exe PID=     20333.
  
 Copyright (c) 1988-2019, Gaussian, Inc.  All Rights Reserved.
  
 This is part of the Gaussian(R) 16 program.  It is based on
 the Gaussian(R) 09 system (copyright 2009, Gaussian, Inc.),
 the Gaussian(R) 03 system (copyright 2003, Gaussian, Inc.),
 the Gaussian(R) 98 system (copyright 1998, Gaussian, Inc.),
 the Gaussian(R) 94 system (copyright 1995, Gaussian, Inc.),
 the Gaussian 92(TM) system (copyright 1992, Gaussian, Inc.),
 the Gaussian 90(TM) system (copyright 1990, Gaussian, Inc.),
 the Gaussian 88(TM) system (copyright 1988, Gaussian, Inc.),
 the Gaussian 86(TM) system (copyright 1986, Carnegie Mellon
 University), and the Gaussian 82(TM) system (copyright 1983,
 Carnegie Mellon University). Gaussian is a federally registered
 trademark of Gaussian, Inc.
  
 This software contains proprietary and confidential information,
 including trade secrets, belonging to Gaussian, Inc.
  
 This software is provided under written license and may be
 used, copied, transmitted, or stored only in accord with that
 written license.
  
 The following legend is applicable only to US Government
 contracts under FAR:
  
                    RESTRICTED RIGHTS LEGEND
  
 Use, reproduction and disclosure by the US Government is
 subject to restrictions as set forth in subparagraphs (a)
 and (c) of the Commercial Computer Software - Restricted
 Rights clause in FAR 52.227-19.
  
 Gaussian, Inc.
 340 Quinnipiac St., Bldg. 40, Wallingford CT 06492
  
  
 ---------------------------------------------------------------
 Warning -- This program may not be used in any manner that
 competes with the business of Gaussian, Inc. or will provide
 assistance to any competitor of Gaussian, Inc.  The licensee
 of this program is prohibited from giving any competitor of
 Gaussian, Inc. access to this program.  By using this program,
 the user acknowledges that Gaussian, Inc. is engaged in the
 business of creating and licensing software in the field of
 computational chemistry and represents and warrants to the
 licensee that it is not a competitor of Gaussian, Inc. and that
 it will not use this program in any manner prohibited above.
 ---------------------------------------------------------------
  

 Cite this work as:
 Gaussian 16, Revision C.01,
 M. J. Frisch, G. W. Trucks, H. B. Schlegel, G. E. Scuseria, 
 M. A. Robb, J. R. Cheeseman, G. Scalmani, V. Barone, 
 G. A. Petersson, H. Nakatsuji, X. Li, M. Caricato, A. V. Marenich, 
 J. Bloino, B. G. Janesko, R. Gomperts, B. Mennucci, H. P. Hratchian, 
 J. V. Ortiz, A. F. Izmaylov, J. L. Sonnenberg, D. Williams-Young, 
 F. Ding, F. Lipparini, F. Egidi, J. Goings, B. Peng, A. Petrone, 
 T. Henderson, D. Ranasinghe, V. G. Zakrzewski, J. Gao, N. Rega, 
 G. Zheng, W. Liang, M. Hada, M. Ehara, K. Toyota, R. Fukuda, 
 J. Hasegawa, M. Ishida, T. Nakajima, Y. Honda, O. Kitao, H. Nakai, 
 T. Vreven, K. Throssell, J. A. Montgomery, Jr., J. E. Peralta, 
 F. Ogliaro, M. J. Bearpark, J. J. Heyd, E. N. Brothers, K. N. Kudin, 
 V. N. Staroverov, T. A. Keith, R. Kobayashi, J. Normand, 
 K. Raghavachari, A. P. Rendell, J. C. Burant, S. S. Iyengar, 
 J. Tomasi, M. Cossi, J. M. Millam, M. Klene, C. Adamo, R. Cammi, 
 J. W. Ochterski, R. L. Martin, K. Morokuma, O. Farkas, 
 J. B. Foresman, and D. J. Fox, Gaussian, Inc., Wallingford CT, 2019.
 
 ******************************************
 Gaussian 16:  ES64L-G16RevC.01  3-Jul-2019
                26-Oct-2023 
 ******************************************
 %chk=OnceDeprotonatedSilicateMonomer_cont.chk
 %mem=8GB
 %nprocs=16
 Will use up to   16 processors via shared memory.
 ---------------------------------------------
 # opt freq wb97xd/def2tzvpp geom=connectivity
 ---------------------------------------------
 1/18=20,19=15,26=3,38=1,57=2/1,3;
 2/9=110,12=2,17=6,18=5,40=1/2;
 3/5=44,7=202,11=2,25=1,30=1,71=1,74=-58/1,2,3;
 4//1;
 5/5=2,38=5/2;
 6/7=2,8=2,9=2,10=2,28=1/1;
 7//1,2,3,16;
 1/18=20,19=15,26=3/3(2);
 2/9=110/2;
 99//99;
 2/9=110/2;
 3/5=44,7=202,11=2,25=1,30=1,71=1,74=-58/1,2,3;
 4/5=5,16=3,69=1/1;
 5/5=2,38=5/2;
 7//1,2,3,16;
 1/18=20,19=15,26=3/3(-5);
 2/9=110/2;
 6/7=2,8=2,9=2,10=2,19=2,28=1/1;
 99/9=1/99;
 -------------------------------------------
 Once Deprotonated Silicate Monomer Opt Freq
 -------------------------------------------
 Symbolic Z-matrix:
 Charge = -1 Multiplicity = 1
 Si                    0.08061   0.05066   0.10189 
 O                    -0.78075   1.01777  -0.99419 
 H                    -0.59281   1.92551  -0.76921 
 O                    -1.15344  -0.82482   0.84091 
 H                    -1.85153  -1.02415   0.22192 
 O                     0.82696  -1.09533  -0.88437 
 H                     1.7689   -0.99081  -0.77539 
 O                     1.05059   0.8249    1.02468 
 

 GradGradGradGradGradGradGradGradGradGradGradGradGradGradGradGradGradGrad
 Berny optimization.
 Initialization pass.
                           ----------------------------
                           !    Initial Parameters    !
                           ! (Angstroms and Degrees)  !
 --------------------------                            --------------------------
 ! Name  Definition              Value          Derivative Info.                !
 --------------------------------------------------------------------------------
 ! R1    R(1,2)                  1.6967         estimate D2E/DX2                !
 ! R2    R(1,4)                  1.6839         estimate D2E/DX2                !
 ! R3    R(1,6)                  1.6861         estimate D2E/DX2                !
 ! R4    R(1,8)                  1.5466         estimate D2E/DX2                !
 ! R5    R(2,3)                  0.9539         estimate D2E/DX2                !
 ! R6    R(4,5)                  0.954          estimate D2E/DX2                !
 ! R7    R(6,7)                  0.954          estimate D2E/DX2                !
 ! A1    A(2,1,4)              101.9949         estimate D2E/DX2                !
 ! A2    A(2,1,6)              103.5476         estimate D2E/DX2                !
 ! A3    A(2,1,8)              114.7406         estimate D2E/DX2                !
 ! A4    A(4,1,6)              103.1643         estimate D2E/DX2                !
 ! A5    A(4,1,8)              117.2616         estimate D2E/DX2                !
 ! A6    A(6,1,8)              114.3078         estimate D2E/DX2                !
 ! A7    A(1,2,3)              106.8605         estimate D2E/DX2                !
 ! A8    A(1,4,5)              111.108          estimate D2E/DX2                !
 ! A9    A(1,6,7)              107.2043         estimate D2E/DX2                !
 ! D1    D(4,1,2,3)            120.5165         estimate D2E/DX2                !
 ! D2    D(6,1,2,3)           -132.5844         estimate D2E/DX2                !
 ! D3    D(8,1,2,3)             -7.3272         estimate D2E/DX2                !
 ! D4    D(2,1,4,5)             35.1248         estimate D2E/DX2                !
 ! D5    D(6,1,4,5)            -72.0711         estimate D2E/DX2                !
 ! D6    D(8,1,4,5)            161.3383         estimate D2E/DX2                !
 ! D7    D(2,1,6,7)            118.5153         estimate D2E/DX2                !
 ! D8    D(4,1,6,7)           -135.469          estimate D2E/DX2                !
 ! D9    D(8,1,6,7)             -7.0198         estimate D2E/DX2                !
 --------------------------------------------------------------------------------
 Trust Radius=3.00D-01 FncErr=1.00D-07 GrdErr=1.00D-06 EigMax=2.50D+02 EigMin=1.00D-04
 Number of steps in this run=     35 maximum allowed number of steps=    100.
 GradGradGradGradGradGradGradGradGradGradGradGradGradGradGradGradGradGrad

                          Input orientation:                          
 ---------------------------------------------------------------------
 Center     Atomic      Atomic             Coordinates (Angstroms)
 Number     Number       Type             X           Y           Z
 ---------------------------------------------------------------------
      1         14           0        0.080608    0.050658    0.101892
      2          8           0       -0.780746    1.017772   -0.994185
      3          1           0       -0.592814    1.925509   -0.769205
      4          8           0       -1.153439   -0.824815    0.840907
      5          1           0       -1.851527   -1.024150    0.221922
      6          8           0        0.826962   -1.095325   -0.884374
      7          1           0        1.768903   -0.990811   -0.775393
      8          8           0        1.050588    0.824898    1.024676
 ---------------------------------------------------------------------
                    Distance matrix (angstroms):
                    1          2          3          4          5
     1  Si   0.000000
     2  O    1.696651   0.000000
     3  H    2.174252   0.953898   0.000000
     4  O    1.683885   2.627088   3.235899   0.000000
     5  H    2.214219   2.606709   3.356662   0.954046   0.000000
     6  O    1.686132   2.657435   3.339830   2.640409   2.898838
     7  H    2.169015   3.253150   3.752688   3.343660   3.755431
     8  O    1.546557   2.732542   2.670229   2.759177   3.533506
                    6          7          8
     6  O    0.000000
     7  H    0.953967   0.000000
     8  O    2.716935   2.655753   0.000000
 Stoichiometry    H3O4Si(1-)
 Framework group  C1[X(H3O4Si)]
 Deg. of freedom    18
 Full point group                 C1      NOp   1
 Largest Abelian subgroup         C1      NOp   1
 Largest concise Abelian subgroup C1      NOp   1
                         Standard orientation:                         
 ---------------------------------------------------------------------
 Center     Atomic      Atomic             Coordinates (Angstroms)
 Number     Number       Type             X           Y           Z
 ---------------------------------------------------------------------
      1         14           0       -0.080608    0.050658   -0.101892
      2          8           0        0.780747    1.017771    0.994185
      3          1           0        0.592816    1.925508    0.769205
      4          8           0        1.153438   -0.824816   -0.840907
      5          1           0        1.851526   -1.024152   -0.221922
      6          8           0       -0.826963   -1.095324    0.884374
      7          1           0       -1.768904   -0.990809    0.775393
      8          8           0       -1.050587    0.824899   -1.024676
 ---------------------------------------------------------------------
 Rotational constants (GHZ):           4.1831053           4.0454779           3.8744585
 Standard basis: def2TZVPP (5D, 7F)
 There are   237 symmetry adapted cartesian basis functions of A   symmetry.
 There are   208 symmetry adapted basis functions of A   symmetry.
   208 basis functions,   324 primitive gaussians,   237 cartesian basis functions
    25 alpha electrons       25 beta electrons
       nuclear repulsion energy       255.7249555151 Hartrees.
 NAtoms=    8 NActive=    8 NUniq=    8 SFac= 1.00D+00 NAtFMM=   60 NAOKFM=F Big=F
 Integral buffers will be    131072 words long.
 Raffenetti 2 integral format.
 Two-electron integral symmetry is turned on.
 Nuclear repulsion after empirical dispersion term =      255.7231287610 Hartrees.
 One-electron integrals computed using PRISM.
   1 Symmetry operations used in ECPInt.
 ECPInt:  NShTT=    2926 NPrTT=    8778 LenC2=    2898 LenP2D=    7196.
 LDataN:  DoStor=T MaxTD1= 6 Len=  172
 NBasis=   208 RedAO= T EigKep=  1.59D-03  NBF=   208
 NBsUse=   208 1.00D-06 EigRej= -1.00D+00 NBFU=   208
 ExpMin= 7.01D-02 ExpMax= 4.48D+04 ExpMxC= 1.53D+03 IAcc=3 IRadAn=         5 AccDes= 0.00D+00
 Harris functional with IExCor= 4639 and IRadAn=       5 diagonalized for initial guess.
 HarFok:  IExCor= 4639 AccDes= 0.00D+00 IRadAn=         5 IDoV= 1 UseB2=F ITyADJ=14
 ICtDFT=  3500011 ScaDFX=  1.000000  1.000000  1.000000  1.000000
 FoFCou: FMM=F IPFlag=           0 FMFlag=      100000 FMFlg1=           0
         NFxFlg=           0 DoJE=T BraDBF=F KetDBF=T FulRan=T
         wScrn=  0.000000 ICntrl=       500 IOpCl=  0 I1Cent=   200000004 NGrid=           0
         NMat0=    1 NMatS0=      1 NMatT0=    0 NMatD0=    1 NMtDS0=    0 NMtDT0=    0
 Petite list used in FoFCou.
 Keep R1 ints in memory in canonical form, NReq=494122186.
 Requested convergence on RMS density matrix=1.00D-08 within 128 cycles.
 Requested convergence on MAX density matrix=1.00D-06.
 Requested convergence on             energy=1.00D-06.
 No special actions if energy rises.
 Integral accuracy reduced to 1.0D-05 until final iterations.
 Initial convergence to 1.0D-05 achieved.  Increase integral accuracy.
 SCF Done:  E(RwB97XD) =  -592.486967814     A.U. after   14 cycles
            NFock= 14  Conv=0.43D-08     -V/T= 2.0029

 **********************************************************************

            Population analysis using the SCF Density.

 **********************************************************************

 Orbital symmetries:
       Occupied  (A) (A) (A) (A) (A) (A) (A) (A) (A) (A) (A) (A)
                 (A) (A) (A) (A) (A) (A) (A) (A) (A) (A) (A) (A)
                 (A)
       Virtual   (A) (A) (A) (A) (A) (A) (A) (A) (A) (A) (A) (A)
                 (A) (A) (A) (A) (A) (A) (A) (A) (A) (A) (A) (A)
                 (A) (A) (A) (A) (A) (A) (A) (A) (A) (A) (A) (A)
                 (A) (A) (A) (A) (A) (A) (A) (A) (A) (A) (A) (A)
                 (A) (A) (A) (A) (A) (A) (A) (A) (A) (A) (A) (A)
                 (A) (A) (A) (A) (A) (A) (A) (A) (A) (A) (A) (A)
                 (A) (A) (A) (A) (A) (A) (A) (A) (A) (A) (A) (A)
                 (A) (A) (A) (A) (A) (A) (A) (A) (A) (A) (A) (A)
                 (A) (A) (A) (A) (A) (A) (A) (A) (A) (A) (A) (A)
                 (A) (A) (A) (A) (A) (A) (A) (A) (A) (A) (A) (A)
                 (A) (A) (A) (A) (A) (A) (A) (A) (A) (A) (A) (A)
                 (A) (A) (A) (A) (A) (A) (A) (A) (A) (A) (A) (A)
                 (A) (A) (A) (A) (A) (A) (A) (A) (A) (A) (A) (A)
                 (A) (A) (A) (A) (A) (A) (A) (A) (A) (A) (A) (A)
                 (A) (A) (A) (A) (A) (A) (A) (A) (A) (A) (A) (A)
                 (A) (A) (A)
 The electronic state is 1-A.
 Alpha  occ. eigenvalues --  -66.06921 -19.04969 -19.04952 -19.04732 -18.94635
 Alpha  occ. eigenvalues --   -5.18743  -3.53320  -3.53281  -3.53040  -0.92524
 Alpha  occ. eigenvalues --   -0.89573  -0.89409  -0.76230  -0.44931  -0.40406
 Alpha  occ. eigenvalues --   -0.37759  -0.30222  -0.28410  -0.27441  -0.23486
 Alpha  occ. eigenvalues --   -0.22846  -0.19630  -0.18887  -0.13477  -0.13229
 Alpha virt. eigenvalues --    0.25947   0.29928   0.30356   0.36609   0.39065
 Alpha virt. eigenvalues --    0.39545   0.43041   0.50209   0.51385   0.51880
 Alpha virt. eigenvalues --    0.54990   0.61664   0.61878   0.64878   0.66075
 Alpha virt. eigenvalues --    0.67133   0.69242   0.71290   0.73624   0.75478
 Alpha virt. eigenvalues --    0.76111   0.76564   0.77952   0.78460   0.79041
 Alpha virt. eigenvalues --    0.79774   0.84780   0.85582   0.90457   0.91607
 Alpha virt. eigenvalues --    0.95505   0.98079   0.99842   1.03743   1.07462
 Alpha virt. eigenvalues --    1.09836   1.12645   1.13141   1.20066   1.21426
 Alpha virt. eigenvalues --    1.24695   1.31844   1.32968   1.38786   1.40101
 Alpha virt. eigenvalues --    1.42245   1.42947   1.46735   1.47520   1.51585
 Alpha virt. eigenvalues --    1.57829   1.58173   1.61219   1.63556   1.72819
 Alpha virt. eigenvalues --    1.74115   1.91023   1.96565   1.96981   1.98903
 Alpha virt. eigenvalues --    1.99386   2.02825   2.08262   2.11545   2.15302
 Alpha virt. eigenvalues --    2.18222   2.19586   2.24008   2.27665   2.31234
 Alpha virt. eigenvalues --    2.32909   2.34780   2.37816   2.39432   2.40391
 Alpha virt. eigenvalues --    2.42603   2.48091   2.51676   2.56721   2.70149
 Alpha virt. eigenvalues --    2.76053   2.79740   2.94653   3.02140   3.05095
 Alpha virt. eigenvalues --    3.11533   3.14378   3.18679   3.22588   3.29114
 Alpha virt. eigenvalues --    3.32617   3.44910   3.46553   3.50522   3.53753
 Alpha virt. eigenvalues --    3.57342   3.58340   3.58508   3.62519   3.62593
 Alpha virt. eigenvalues --    3.64954   3.71700   3.74376   3.92331   3.95394
 Alpha virt. eigenvalues --    3.98023   4.05383   4.13749   4.18141   4.19029
 Alpha virt. eigenvalues --    4.28796   4.29414   4.30648   4.34600   4.40615
 Alpha virt. eigenvalues --    4.43927   4.47612   4.51851   4.55497   4.75861
 Alpha virt. eigenvalues --    4.79293   5.14241   5.15019   5.16919   5.18975
 Alpha virt. eigenvalues --    5.20170   5.26259   5.41271   5.45786   5.47865
 Alpha virt. eigenvalues --    5.48299   5.54081   5.55015   5.60125   5.60747
 Alpha virt. eigenvalues --    5.65752   5.67427   5.70663   5.72016   5.73171
 Alpha virt. eigenvalues --    5.74472   5.86198   5.87422   5.91785   6.09887
 Alpha virt. eigenvalues --    6.12326   6.65896   6.66706   6.68505   6.72834
 Alpha virt. eigenvalues --    6.74800   6.81732   6.83355   6.84193   6.84677
 Alpha virt. eigenvalues --    6.85391   6.87511   6.88690   6.90418   6.92418
 Alpha virt. eigenvalues --    6.92556   6.95772   6.96263   7.00880   7.07202
 Alpha virt. eigenvalues --    7.10251   7.13717   7.13808   7.17226   7.37718
 Alpha virt. eigenvalues --    7.41637   7.52232   7.54196   7.57278   7.68027
 Alpha virt. eigenvalues --    7.77110   7.85658   7.90255  12.31669  43.92322
 Alpha virt. eigenvalues --   43.94612  43.95315  44.02832
          Condensed to atoms (all electrons):
               1          2          3          4          5          6
     1  Si  11.443842   0.369200  -0.031386   0.392000  -0.028845   0.380493
     2  O    0.369200   7.922606   0.328584  -0.041134  -0.000018  -0.036259
     3  H   -0.031386   0.328584   0.532251   0.000928   0.000008   0.000383
     4  O    0.392000  -0.041134   0.000928   7.870110   0.311291  -0.038670
     5  H   -0.028845  -0.000018   0.000008   0.311291   0.572183  -0.000257
     6  O    0.380493  -0.036259   0.000383  -0.038670  -0.000257   7.892861
     7  H   -0.030642  -0.000136  -0.000354   0.001467  -0.000016   0.328311
     8  O    0.746264  -0.045754   0.004629  -0.037682   0.001031  -0.047954
               7          8
     1  Si  -0.030642   0.746264
     2  O   -0.000136  -0.045754
     3  H   -0.000354   0.004629
     4  O    0.001467  -0.037682
     5  H   -0.000016   0.001031
     6  O    0.328311  -0.047954
     7  H    0.535421   0.004700
     8  O    0.004700   8.170362
 Mulliken charges:
               1
     1  Si   0.759072
     2  O   -0.497089
     3  H    0.164958
     4  O   -0.458309
     5  H    0.144623
     6  O   -0.478908
     7  H    0.161248
     8  O   -0.795596
 Sum of Mulliken charges =  -1.00000
 Mulliken charges with hydrogens summed into heavy atoms:
               1
     1  Si   0.759072
     2  O   -0.332131
     4  O   -0.313685
     6  O   -0.317660
     8  O   -0.795596
 Electronic spatial extent (au):  <R**2>=            455.4579
 Charge=             -1.0000 electrons
 Dipole moment (field-independent basis, Debye):
    X=              1.6216    Y=             -0.6356    Z=              2.5049  Tot=              3.0509
 Quadrupole moment (field-independent basis, Debye-Ang):
   XX=            -38.9581   YY=            -40.4110   ZZ=            -48.2401
   XY=              2.5815   XZ=             -3.4122   YZ=              2.5280
 Traceless Quadrupole moment (field-independent basis, Debye-Ang):
   XX=              3.5783   YY=              2.1254   ZZ=             -5.7037
   XY=              2.5815   XZ=             -3.4122   YZ=              2.5280
 Octapole moment (field-independent basis, Debye-Ang**2):
  XXX=              3.1291  YYY=              9.9225  ZZZ=              3.6298  XYY=              6.3493
  XXY=            -11.8798  XXZ=              9.5742  XZZ=              0.9691  YZZ=             -2.2648
  YYZ=              4.4473  XYZ=             -8.6083
 Hexadecapole moment (field-independent basis, Debye-Ang**3):
 XXXX=           -177.1904 YYYY=           -178.0835 ZZZZ=           -193.7594 XXXY=              5.3469
 XXXZ=            -13.9711 YYYX=              7.7779 YYYZ=             13.4115 ZZZX=             -6.6468
 ZZZY=              4.0005 XXYY=            -63.6841 XXZZ=            -73.2953 YYZZ=            -70.0990
 XXYZ=             -1.6987 YYXZ=             -1.0420 ZZXY=              3.9716
 N-N= 2.557231287610D+02 E-N=-1.930324134105D+03  KE= 5.907685408883D+02
   1 Symmetry operations used in ECPInt.
 ECPInt:  NShTT=    2926 NPrTT=    8778 LenC2=    2898 LenP2D=    7196.
 LDataN:  DoStor=T MaxTD1= 7 Len=  274
 Calling FoFJK, ICntrl=      2127 FMM=F ISym2X=0 I1Cent= 0 IOpClX= 0 NMat=1 NMatS=1 NMatT=0.
 ***** Axes restored to original set *****
 -------------------------------------------------------------------
 Center     Atomic                   Forces (Hartrees/Bohr)
 Number     Number              X              Y              Z
 -------------------------------------------------------------------
      1       14          -0.000412422    0.000601249    0.001014705
      2        8          -0.000036476   -0.000916878   -0.000375778
      3        1           0.000306905    0.000609738    0.000127363
      4        8           0.000711704   -0.000022230   -0.000043751
      5        1          -0.000080972    0.000376216    0.000070824
      6        8          -0.000319383   -0.001284700   -0.001405733
      7        1           0.000354922    0.000359929    0.000121046
      8        8          -0.000524278    0.000276676    0.000491325
 -------------------------------------------------------------------
 Cartesian Forces:  Max     0.001405733 RMS     0.000587374

 GradGradGradGradGradGradGradGradGradGradGradGradGradGradGradGradGradGrad
 Berny optimization.
 FormGI is forming the generalized inverse of G from B-inverse, IUseBI=4.
 Internal  Forces:  Max     0.001394457 RMS     0.000514066
 Search for a local minimum.
 Step number   1 out of a maximum of   35
 All quantities printed in internal units (Hartrees-Bohrs-Radians)
 Mixed Optimization -- En-DIIS/RFO-DIIS
 Second derivative matrix not updated -- first step.
 ITU=  0
     Eigenvalues ---    0.03061   0.03200   0.03230   0.12901   0.13253
     Eigenvalues ---    0.15056   0.16000   0.16000   0.16000   0.21285
     Eigenvalues ---    0.21491   0.36296   0.37613   0.37902   0.56774
     Eigenvalues ---    0.56792   0.56807   0.63115
 RFO step:  Lambda=-3.06927079D-05 EMin= 3.06066058D-02
 Linear search not attempted -- first point.
 Iteration  1 RMS(Cart)=  0.00449021 RMS(Int)=  0.00000838
 Iteration  2 RMS(Cart)=  0.00000942 RMS(Int)=  0.00000179
 Iteration  3 RMS(Cart)=  0.00000000 RMS(Int)=  0.00000179
 Variable       Old X    -DE/DX   Delta X   Delta X   Delta X     New X
                                 (Linear)    (Quad)   (Total)
    R1        3.20621  -0.00015   0.00000  -0.00042  -0.00042   3.20579
    R2        3.18208  -0.00063   0.00000  -0.00167  -0.00167   3.18041
    R3        3.18633   0.00139   0.00000   0.00371   0.00371   3.19004
    R4        2.92257   0.00010   0.00000   0.00016   0.00016   2.92273
    R5        1.80261   0.00067   0.00000   0.00118   0.00118   1.80379
    R6        1.80289  -0.00006   0.00000  -0.00011  -0.00011   1.80278
    R7        1.80274   0.00040   0.00000   0.00071   0.00071   1.80345
    A1        1.78015   0.00047   0.00000   0.00139   0.00139   1.78154
    A2        1.80725  -0.00095   0.00000  -0.00451  -0.00451   1.80274
    A3        2.00260   0.00003   0.00000  -0.00016  -0.00016   2.00244
    A4        1.80056   0.00013   0.00000   0.00078   0.00078   1.80134
    A5        2.04660  -0.00067   0.00000  -0.00317  -0.00317   2.04343
    A6        1.99505   0.00092   0.00000   0.00518   0.00518   2.00022
    A7        1.86507  -0.00016   0.00000  -0.00101  -0.00101   1.86406
    A8        1.93920  -0.00016   0.00000  -0.00101  -0.00101   1.93819
    A9        1.87107  -0.00053   0.00000  -0.00329  -0.00329   1.86778
    D1        2.10341  -0.00007   0.00000   0.00194   0.00194   2.10535
    D2       -2.31403  -0.00007   0.00000   0.00188   0.00188  -2.31216
    D3       -0.12788   0.00041   0.00000   0.00501   0.00501  -0.12287
    D4        0.61304  -0.00048   0.00000  -0.00752  -0.00752   0.60553
    D5       -1.25788   0.00035   0.00000  -0.00336  -0.00336  -1.26124
    D6        2.81588  -0.00050   0.00000  -0.00865  -0.00865   2.80724
    D7        2.06848  -0.00019   0.00000  -0.00287  -0.00288   2.06561
    D8       -2.36438   0.00005   0.00000  -0.00254  -0.00255  -2.36693
    D9       -0.12252  -0.00011   0.00000  -0.00260  -0.00259  -0.12511
         Item               Value     Threshold  Converged?
 Maximum Force            0.001394     0.000450     NO 
 RMS     Force            0.000514     0.000300     NO 
 Maximum Displacement     0.009379     0.001800     NO 
 RMS     Displacement     0.004492     0.001200     NO 
 Predicted change in Energy=-1.534498D-05
 GradGradGradGradGradGradGradGradGradGradGradGradGradGradGradGradGradGrad

                          Input orientation:                          
 ---------------------------------------------------------------------
 Center     Atomic      Atomic             Coordinates (Angstroms)
 Number     Number       Type             X           Y           Z
 ---------------------------------------------------------------------
      1         14           0        0.080650    0.049527    0.103349
      2          8           0       -0.778959    1.014984   -0.995211
      3          1           0       -0.589509    1.923320   -0.771270
      4          8           0       -1.152222   -0.825931    0.842325
      5          1           0       -1.852201   -1.020740    0.224125
      6          8           0        0.826514   -1.095693   -0.887520
      7          1           0        1.768505   -0.987571   -0.779197
      8          8           0        1.045757    0.825840    1.029639
 ---------------------------------------------------------------------
                    Distance matrix (angstroms):
                    1          2          3          4          5
     1  Si   0.000000
     2  O    1.696429   0.000000
     3  H    2.173747   0.954523   0.000000
     4  O    1.682999   2.627705   3.237085   0.000000
     5  H    2.212684   2.604381   3.354503   0.953987   0.000000
     6  O    1.688094   2.654072   3.336626   2.642069   2.901186
     7  H    2.168713   3.247532   3.746142   3.344564   3.757295
     8  O    1.546643   2.732285   2.668676   2.755820   3.529429
                    6          7          8
     6  O    0.000000
     7  H    0.954344   0.000000
     8  O    2.723206   2.661336   0.000000
 Stoichiometry    H3O4Si(1-)
 Framework group  C1[X(H3O4Si)]
 Deg. of freedom    18
 Full point group                 C1      NOp   1
 Largest Abelian subgroup         C1      NOp   1
 Largest concise Abelian subgroup C1      NOp   1
                         Standard orientation:                         
 ---------------------------------------------------------------------
 Center     Atomic      Atomic             Coordinates (Angstroms)
 Number     Number       Type             X           Y           Z
 ---------------------------------------------------------------------
      1         14           0       -0.080814    0.051034   -0.102404
      2          8           0        0.764609    1.008417    1.014085
      3          1           0        0.568807    1.918139    0.801523
      4          8           0        1.163400   -0.803953   -0.846322
      5          1           0        1.861559   -1.001419   -0.226908
      6          8           0       -0.822533   -1.113817    0.868490
      7          1           0       -1.764784   -1.012031    0.756347
      8          8           0       -1.047250    0.831959   -1.023416
 ---------------------------------------------------------------------
 Rotational constants (GHZ):           4.1745553           4.0430132           3.8825720
 Standard basis: def2TZVPP (5D, 7F)
 There are   237 symmetry adapted cartesian basis functions of A   symmetry.
 There are   208 symmetry adapted basis functions of A   symmetry.
   208 basis functions,   324 primitive gaussians,   237 cartesian basis functions
    25 alpha electrons       25 beta electrons
       nuclear repulsion energy       255.6989227919 Hartrees.
 NAtoms=    8 NActive=    8 NUniq=    8 SFac= 1.00D+00 NAtFMM=   60 NAOKFM=F Big=F
 Integral buffers will be    131072 words long.
 Raffenetti 2 integral format.
 Two-electron integral symmetry is turned on.
 Nuclear repulsion after empirical dispersion term =      255.6970947895 Hartrees.
 One-electron integrals computed using PRISM.
   1 Symmetry operations used in ECPInt.
 ECPInt:  NShTT=    2926 NPrTT=    8778 LenC2=    2898 LenP2D=    7193.
 LDataN:  DoStor=T MaxTD1= 6 Len=  172
 NBasis=   208 RedAO= T EigKep=  1.60D-03  NBF=   208
 NBsUse=   208 1.00D-06 EigRej= -1.00D+00 NBFU=   208
 Initial guess from the checkpoint file:  "OnceDeprotonatedSilicateMonomer_cont.chk"
 B after Tr=     0.000000    0.000000   -0.000000
         Rot=    0.999965   -0.006713    0.003172   -0.003834 Ang=  -0.96 deg.
 Keep R1 ints in memory in canonical form, NReq=494122186.
 Requested convergence on RMS density matrix=1.00D-08 within 128 cycles.
 Requested convergence on MAX density matrix=1.00D-06.
 Requested convergence on             energy=1.00D-06.
 No special actions if energy rises.
 SCF Done:  E(RwB97XD) =  -592.486989000     A.U. after   10 cycles
            NFock= 10  Conv=0.28D-08     -V/T= 2.0029
   1 Symmetry operations used in ECPInt.
 ECPInt:  NShTT=    2926 NPrTT=    8778 LenC2=    2898 LenP2D=    7193.
 LDataN:  DoStor=T MaxTD1= 7 Len=  274
 Calling FoFJK, ICntrl=      2127 FMM=F ISym2X=0 I1Cent= 0 IOpClX= 0 NMat=1 NMatS=1 NMatT=0.
 ***** Axes restored to original set *****
 -------------------------------------------------------------------
 Center     Atomic                   Forces (Hartrees/Bohr)
 Number     Number              X              Y              Z
 -------------------------------------------------------------------
      1       14          -0.000232713    0.000424041    0.000520314
      2        8          -0.000038298   -0.000077237   -0.000179149
      3        1           0.000094685    0.000028769   -0.000014261
      4        8           0.000437870   -0.000237303   -0.000068066
      5        1          -0.000178380    0.000281063    0.000054489
      6        8           0.000012174   -0.000548816   -0.000363935
      7        1           0.000136041    0.000140992   -0.000030704
      8        8          -0.000231378   -0.000011509    0.000081312
 -------------------------------------------------------------------
 Cartesian Forces:  Max     0.000548816 RMS     0.000246144

 GradGradGradGradGradGradGradGradGradGradGradGradGradGradGradGradGradGrad
 Berny optimization.
 Using GEDIIS/GDIIS optimizer.
 FormGI is forming the generalized inverse of G from B-inverse, IUseBI=4.
 Internal  Forces:  Max     0.000572915 RMS     0.000180601
 Search for a local minimum.
 Step number   2 out of a maximum of   35
 All quantities printed in internal units (Hartrees-Bohrs-Radians)
 Mixed Optimization -- En-DIIS/RFO-DIIS
 Swapping is turned off.
 Update second derivatives using D2CorX and points    1    2
 DE= -2.12D-05 DEPred=-1.53D-05 R= 1.38D+00
 TightC=F SS=  1.41D+00  RLast= 1.70D-02 DXNew= 5.0454D-01 5.0886D-02
 Trust test= 1.38D+00 RLast= 1.70D-02 DXMaxT set to 3.00D-01
 ITU=  1  0
     Eigenvalues ---    0.02235   0.03085   0.03205   0.13144   0.13481
     Eigenvalues ---    0.15179   0.15839   0.16000   0.16119   0.19300
     Eigenvalues ---    0.21388   0.34930   0.36518   0.37888   0.56620
     Eigenvalues ---    0.56779   0.57465   0.63364
 En-DIIS/RFO-DIIS/Sim-DIIS IScMMF=       -3 using points:     2    1
 RFO step:  Lambda=-1.19859686D-05.
 DidBck=F Rises=F RFO-DIIS coefs:    2.12236   -1.12236
 Iteration  1 RMS(Cart)=  0.00405928 RMS(Int)=  0.00001532
 Iteration  2 RMS(Cart)=  0.00001410 RMS(Int)=  0.00000235
 Iteration  3 RMS(Cart)=  0.00000000 RMS(Int)=  0.00000235
 Variable       Old X    -DE/DX   Delta X   Delta X   Delta X     New X
                                 (Linear)    (Quad)   (Total)
    R1        3.20579   0.00007  -0.00047   0.00071   0.00023   3.20602
    R2        3.18041  -0.00022  -0.00188   0.00068  -0.00120   3.17921
    R3        3.19004   0.00057   0.00416  -0.00112   0.00304   3.19308
    R4        2.92273  -0.00010   0.00018  -0.00042  -0.00023   2.92250
    R5        1.80379   0.00004   0.00133  -0.00101   0.00031   1.80410
    R6        1.80278   0.00004  -0.00012   0.00022   0.00010   1.80287
    R7        1.80345   0.00015   0.00080  -0.00027   0.00053   1.80398
    A1        1.78154   0.00022   0.00156   0.00028   0.00184   1.78337
    A2        1.80274  -0.00026  -0.00506   0.00240  -0.00266   1.80008
    A3        2.00244   0.00004  -0.00018   0.00055   0.00038   2.00283
    A4        1.80134  -0.00001   0.00087  -0.00090  -0.00003   1.80131
    A5        2.04343  -0.00022  -0.00356   0.00137  -0.00219   2.04124
    A6        2.00022   0.00021   0.00581  -0.00334   0.00248   2.00270
    A7        1.86406  -0.00007  -0.00113   0.00029  -0.00084   1.86321
    A8        1.93819  -0.00001  -0.00113   0.00083  -0.00030   1.93789
    A9        1.86778  -0.00012  -0.00369   0.00200  -0.00169   1.86608
    D1        2.10535   0.00003   0.00218   0.00048   0.00266   2.10801
    D2       -2.31216   0.00001   0.00211   0.00031   0.00241  -2.30974
    D3       -0.12287   0.00011   0.00563  -0.00181   0.00382  -0.11905
    D4        0.60553  -0.00029  -0.00844  -0.00288  -0.01132   0.59421
    D5       -1.26124  -0.00008  -0.00377  -0.00526  -0.00904  -1.27027
    D6        2.80724  -0.00020  -0.00970  -0.00107  -0.01078   2.79646
    D7        2.06561  -0.00012  -0.00323  -0.00093  -0.00416   2.06144
    D8       -2.36693   0.00003  -0.00286  -0.00017  -0.00303  -2.36996
    D9       -0.12511  -0.00011  -0.00291  -0.00132  -0.00422  -0.12933
         Item               Value     Threshold  Converged?
 Maximum Force            0.000573     0.000450     NO 
 RMS     Force            0.000181     0.000300     YES
 Maximum Displacement     0.008512     0.001800     NO 
 RMS     Displacement     0.004062     0.001200     NO 
 Predicted change in Energy=-5.994357D-06
 GradGradGradGradGradGradGradGradGradGradGradGradGradGradGradGradGradGrad

                          Input orientation:                          
 ---------------------------------------------------------------------
 Center     Atomic      Atomic             Coordinates (Angstroms)
 Number     Number       Type             X           Y           Z
 ---------------------------------------------------------------------
      1         14           0        0.080329    0.048575    0.104329
      2          8           0       -0.777978    1.013040   -0.996310
      3          1           0       -0.587085    1.921484   -0.773334
      4          8           0       -1.150765   -0.828422    0.842998
      5          1           0       -1.854567   -1.016236    0.226897
      6          8           0        0.827206   -1.096075   -0.889176
      7          1           0        1.769221   -0.984177   -0.782416
      8          8           0        1.042173    0.825546    1.033252
 ---------------------------------------------------------------------
                    Distance matrix (angstroms):
                    1          2          3          4          5
     1  Si   0.000000
     2  O    1.696553   0.000000
     3  H    2.173367   0.954689   0.000000
     4  O    1.682364   2.629260   3.239175   0.000000
     5  H    2.211937   2.602544   3.352189   0.954039   0.000000
     6  O    1.689705   2.652632   3.334562   2.642809   2.905839
     7  H    2.169158   3.243893   3.741006   3.345527   3.761858
     8  O    1.546520   2.732622   2.668204   2.753323   3.526112
                    6          7          8
     6  O    0.000000
     7  H    0.954626   0.000000
     8  O    2.726640   2.664647   0.000000
 Stoichiometry    H3O4Si(1-)
 Framework group  C1[X(H3O4Si)]
 Deg. of freedom    18
 Full point group                 C1      NOp   1
 Largest Abelian subgroup         C1      NOp   1
 Largest concise Abelian subgroup C1      NOp   1
                         Standard orientation:                         
 ---------------------------------------------------------------------
 Center     Atomic      Atomic             Coordinates (Angstroms)
 Number     Number       Type             X           Y           Z
 ---------------------------------------------------------------------
      1         14           0       -0.080306    0.051469   -0.102968
      2          8           0        0.758449    1.003461    1.023304
      3          1           0        0.560965    1.914037    0.815256
      4          8           0        1.165945   -0.800145   -0.845909
      5          1           0        1.865739   -0.992687   -0.226710
      6          8           0       -0.825430   -1.118290    0.862203
      7          1           0       -1.767436   -1.013288    0.748581
      8          8           0       -1.040837    0.836396   -1.026545
 ---------------------------------------------------------------------
 Rotational constants (GHZ):           4.1678241           4.0410453           3.8876182
 Standard basis: def2TZVPP (5D, 7F)
 There are   237 symmetry adapted cartesian basis functions of A   symmetry.
 There are   208 symmetry adapted basis functions of A   symmetry.
   208 basis functions,   324 primitive gaussians,   237 cartesian basis functions
    25 alpha electrons       25 beta electrons
       nuclear repulsion energy       255.6670194739 Hartrees.
 NAtoms=    8 NActive=    8 NUniq=    8 SFac= 1.00D+00 NAtFMM=   60 NAOKFM=F Big=F
 Integral buffers will be    131072 words long.
 Raffenetti 2 integral format.
 Two-electron integral symmetry is turned on.
 Nuclear repulsion after empirical dispersion term =      255.6651908992 Hartrees.
 One-electron integrals computed using PRISM.
   1 Symmetry operations used in ECPInt.
 ECPInt:  NShTT=    2926 NPrTT=    8778 LenC2=    2898 LenP2D=    7193.
 LDataN:  DoStor=T MaxTD1= 6 Len=  172
 NBasis=   208 RedAO= T EigKep=  1.60D-03  NBF=   208
 NBsUse=   208 1.00D-06 EigRej= -1.00D+00 NBFU=   208
 Initial guess from the checkpoint file:  "OnceDeprotonatedSilicateMonomer_cont.chk"
 B after Tr=    -0.000000   -0.000000    0.000000
         Rot=    0.999995   -0.002182    0.002257   -0.000188 Ang=  -0.36 deg.
 Keep R1 ints in memory in canonical form, NReq=494122186.
 Requested convergence on RMS density matrix=1.00D-08 within 128 cycles.
 Requested convergence on MAX density matrix=1.00D-06.
 Requested convergence on             energy=1.00D-06.
 No special actions if energy rises.
 SCF Done:  E(RwB97XD) =  -592.486996823     A.U. after    9 cycles
            NFock=  9  Conv=0.85D-08     -V/T= 2.0029
   1 Symmetry operations used in ECPInt.
 ECPInt:  NShTT=    2926 NPrTT=    8778 LenC2=    2898 LenP2D=    7193.
 LDataN:  DoStor=T MaxTD1= 7 Len=  274
 Calling FoFJK, ICntrl=      2127 FMM=F ISym2X=0 I1Cent= 0 IOpClX= 0 NMat=1 NMatS=1 NMatT=0.
 ***** Axes restored to original set *****
 -------------------------------------------------------------------
 Center     Atomic                   Forces (Hartrees/Bohr)
 Number     Number              X              Y              Z
 -------------------------------------------------------------------
      1       14           0.000035865    0.000005438   -0.000009547
      2        8          -0.000065179    0.000108225    0.000051376
      3        1           0.000001260   -0.000091425   -0.000046532
      4        8           0.000082109   -0.000302664   -0.000210582
      5        1          -0.000155062    0.000238560    0.000102393
      6        8           0.000159302    0.000019266    0.000315021
      7        1          -0.000070380    0.000023228   -0.000105439
      8        8           0.000012085   -0.000000628   -0.000096691
 -------------------------------------------------------------------
 Cartesian Forces:  Max     0.000315021 RMS     0.000131618

 GradGradGradGradGradGradGradGradGradGradGradGradGradGradGradGradGradGrad
 Berny optimization.
 Using GEDIIS/GDIIS optimizer.
 FormGI is forming the generalized inverse of G from B-inverse, IUseBI=4.
 Internal  Forces:  Max     0.000257527 RMS     0.000101486
 Search for a local minimum.
 Step number   3 out of a maximum of   35
 All quantities printed in internal units (Hartrees-Bohrs-Radians)
 Mixed Optimization -- En-DIIS/RFO-DIIS
 Swapping is turned off.
 Update second derivatives using D2CorX and points    1    2    3
 DE= -7.82D-06 DEPred=-5.99D-06 R= 1.31D+00
 TightC=F SS=  1.41D+00  RLast= 2.08D-02 DXNew= 5.0454D-01 6.2507D-02
 Trust test= 1.31D+00 RLast= 2.08D-02 DXMaxT set to 3.00D-01
 ITU=  1  1  0
     Eigenvalues ---    0.01092   0.03088   0.03205   0.13175   0.13486
     Eigenvalues ---    0.15198   0.15961   0.16004   0.16370   0.21378
     Eigenvalues ---    0.27027   0.36319   0.37870   0.39537   0.56778
     Eigenvalues ---    0.56903   0.58571   0.63460
 En-DIIS/RFO-DIIS/Sim-DIIS IScMMF=       -3 using points:     3    2    1
 RFO step:  Lambda=-6.04997759D-06.
 DidBck=F Rises=F RFO-DIIS coefs:    1.79464   -0.62255   -0.17209
 Iteration  1 RMS(Cart)=  0.00331534 RMS(Int)=  0.00001531
 Iteration  2 RMS(Cart)=  0.00001318 RMS(Int)=  0.00000099
 Iteration  3 RMS(Cart)=  0.00000000 RMS(Int)=  0.00000099
 Variable       Old X    -DE/DX   Delta X   Delta X   Delta X     New X
                                 (Linear)    (Quad)   (Total)
    R1        3.20602   0.00004   0.00011  -0.00001   0.00011   3.20613
    R2        3.17921   0.00004  -0.00124   0.00062  -0.00062   3.17858
    R3        3.19308  -0.00011   0.00306  -0.00163   0.00143   3.19451
    R4        2.92250  -0.00005  -0.00016   0.00002  -0.00013   2.92237
    R5        1.80410  -0.00010   0.00045  -0.00030   0.00016   1.80426
    R6        1.80287   0.00000   0.00006  -0.00004   0.00002   1.80289
    R7        1.80398  -0.00008   0.00055  -0.00037   0.00017   1.80415
    A1        1.78337  -0.00014   0.00170  -0.00142   0.00028   1.78366
    A2        1.80008   0.00018  -0.00289   0.00202  -0.00087   1.79921
    A3        2.00283  -0.00001   0.00028  -0.00023   0.00005   2.00288
    A4        1.80131  -0.00002   0.00011  -0.00007   0.00004   1.80135
    A5        2.04124   0.00015  -0.00229   0.00170  -0.00059   2.04065
    A6        2.00270  -0.00016   0.00286  -0.00188   0.00097   2.00367
    A7        1.86321   0.00001  -0.00084   0.00042  -0.00043   1.86278
    A8        1.93789   0.00006  -0.00041   0.00053   0.00012   1.93801
    A9        1.86608   0.00007  -0.00191   0.00116  -0.00075   1.86533
    D1        2.10801   0.00005   0.00245  -0.00037   0.00208   2.11009
    D2       -2.30974   0.00004   0.00224  -0.00028   0.00196  -2.30779
    D3       -0.11905  -0.00003   0.00390  -0.00132   0.00258  -0.11647
    D4        0.59421  -0.00011  -0.01029  -0.00038  -0.01066   0.58354
    D5       -1.27027  -0.00026  -0.00776  -0.00207  -0.00983  -1.28011
    D6        2.79646  -0.00014  -0.01005  -0.00070  -0.01075   2.78571
    D7        2.06144  -0.00002  -0.00380   0.00016  -0.00365   2.05779
    D8       -2.36996  -0.00011  -0.00285  -0.00076  -0.00360  -2.37356
    D9       -0.12933  -0.00004  -0.00380   0.00012  -0.00367  -0.13301
         Item               Value     Threshold  Converged?
 Maximum Force            0.000258     0.000450     YES
 RMS     Force            0.000101     0.000300     YES
 Maximum Displacement     0.009540     0.001800     NO 
 RMS     Displacement     0.003316     0.001200     NO 
 Predicted change in Energy=-2.934108D-06
 GradGradGradGradGradGradGradGradGradGradGradGradGradGradGradGradGradGrad

                          Input orientation:                          
 ---------------------------------------------------------------------
 Center     Atomic      Atomic             Coordinates (Angstroms)
 Number     Number       Type             X           Y           Z
 ---------------------------------------------------------------------
      1         14           0        0.080443    0.047442    0.104860
      2          8           0       -0.777857    1.011160   -0.996527
      3          1           0       -0.586172    1.919707   -0.774289
      4          8           0       -1.149914   -0.830635    0.842724
      5          1           0       -1.857509   -1.011187    0.228786
      6          8           0        0.828642   -1.096611   -0.889626
      7          1           0        1.770548   -0.981384   -0.784655
      8          8           0        1.040353    0.825246    1.034967
 ---------------------------------------------------------------------
                    Distance matrix (angstroms):
                    1          2          3          4          5
     1  Si   0.000000
     2  O    1.696609   0.000000
     3  H    2.173167   0.954772   0.000000
     4  O    1.682034   2.629349   3.239895   0.000000
     5  H    2.211721   2.599409   3.348522   0.954048   0.000000
     6  O    1.690462   2.652351   3.333643   2.643191   2.910936
     7  H    2.169372   3.241834   3.737722   3.346667   3.767061
     8  O    1.546449   2.732657   2.667740   2.752484   3.524204
                    6          7          8
     6  O    0.000000
     7  H    0.954717   0.000000
     8  O    2.728079   2.666106   0.000000
 Stoichiometry    H3O4Si(1-)
 Framework group  C1[X(H3O4Si)]
 Deg. of freedom    18
 Full point group                 C1      NOp   1
 Largest Abelian subgroup         C1      NOp   1
 Largest concise Abelian subgroup C1      NOp   1
                         Standard orientation:                         
 ---------------------------------------------------------------------
 Center     Atomic      Atomic             Coordinates (Angstroms)
 Number     Number       Type             X           Y           Z
 ---------------------------------------------------------------------
      1         14           0       -0.079961    0.051886   -0.103244
      2          8           0        0.758585    0.997296    1.028800
      3          1           0        0.562863    1.909116    0.824186
      4          8           0        1.165153   -0.801186   -0.845671
      5          1           0        1.866937   -0.990145   -0.227608
      6          8           0       -0.831202   -1.118863    0.857300
      7          1           0       -1.772652   -1.007986    0.743894
      8          8           0       -1.034747    0.843080   -1.027312
 ---------------------------------------------------------------------
 Rotational constants (GHZ):           4.1657216           4.0403579           3.8890117
 Standard basis: def2TZVPP (5D, 7F)
 There are   237 symmetry adapted cartesian basis functions of A   symmetry.
 There are   208 symmetry adapted basis functions of A   symmetry.
   208 basis functions,   324 primitive gaussians,   237 cartesian basis functions
    25 alpha electrons       25 beta electrons
       nuclear repulsion energy       255.6543902590 Hartrees.
 NAtoms=    8 NActive=    8 NUniq=    8 SFac= 1.00D+00 NAtFMM=   60 NAOKFM=F Big=F
 Integral buffers will be    131072 words long.
 Raffenetti 2 integral format.
 Two-electron integral symmetry is turned on.
 Nuclear repulsion after empirical dispersion term =      255.6525618262 Hartrees.
 One-electron integrals computed using PRISM.
   1 Symmetry operations used in ECPInt.
 ECPInt:  NShTT=    2926 NPrTT=    8778 LenC2=    2898 LenP2D=    7193.
 LDataN:  DoStor=T MaxTD1= 6 Len=  172
 NBasis=   208 RedAO= T EigKep=  1.60D-03  NBF=   208
 NBsUse=   208 1.00D-06 EigRej= -1.00D+00 NBFU=   208
 Initial guess from the checkpoint file:  "OnceDeprotonatedSilicateMonomer_cont.chk"
 B after Tr=    -0.000000    0.000000   -0.000000
         Rot=    0.999997   -0.001610    0.001298    0.001501 Ang=  -0.29 deg.
 Keep R1 ints in memory in canonical form, NReq=494122186.
 Requested convergence on RMS density matrix=1.00D-08 within 128 cycles.
 Requested convergence on MAX density matrix=1.00D-06.
 Requested convergence on             energy=1.00D-06.
 No special actions if energy rises.
 SCF Done:  E(RwB97XD) =  -592.487001204     A.U. after    9 cycles
            NFock=  9  Conv=0.57D-08     -V/T= 2.0029
   1 Symmetry operations used in ECPInt.
 ECPInt:  NShTT=    2926 NPrTT=    8778 LenC2=    2898 LenP2D=    7193.
 LDataN:  DoStor=T MaxTD1= 7 Len=  274
 Calling FoFJK, ICntrl=      2127 FMM=F ISym2X=0 I1Cent= 0 IOpClX= 0 NMat=1 NMatS=1 NMatT=0.
 ***** Axes restored to original set *****
 -------------------------------------------------------------------
 Center     Atomic                   Forces (Hartrees/Bohr)
 Number     Number              X              Y              Z
 -------------------------------------------------------------------
      1       14           0.000129310   -0.000212267   -0.000285853
      2        8          -0.000075924    0.000221212    0.000130101
      3        1          -0.000041928   -0.000152692   -0.000065318
      4        8          -0.000075026   -0.000368546   -0.000237818
      5        1          -0.000125965    0.000237434    0.000112863
      6        8           0.000170497    0.000292079    0.000638342
      7        1          -0.000122547   -0.000026401   -0.000132411
      8        8           0.000141583    0.000009181   -0.000159907
 -------------------------------------------------------------------
 Cartesian Forces:  Max     0.000638342 RMS     0.000216819

 GradGradGradGradGradGradGradGradGradGradGradGradGradGradGradGradGradGrad
 Berny optimization.
 Using GEDIIS/GDIIS optimizer.
 FormGI is forming the generalized inverse of G from B-inverse, IUseBI=4.
 Internal  Forces:  Max     0.000456930 RMS     0.000189509
 Search for a local minimum.
 Step number   4 out of a maximum of   35
 All quantities printed in internal units (Hartrees-Bohrs-Radians)
 Mixed Optimization -- En-DIIS/RFO-DIIS
 Swapping is turned off.
 Update second derivatives using D2CorX and points    1    2    3    4
 DE= -4.38D-06 DEPred=-2.93D-06 R= 1.49D+00
 TightC=F SS=  1.41D+00  RLast= 1.96D-02 DXNew= 5.0454D-01 5.8937D-02
 Trust test= 1.49D+00 RLast= 1.96D-02 DXMaxT set to 3.00D-01
 ITU=  1  1  1  0
     Eigenvalues ---    0.00302   0.03087   0.03206   0.13187   0.13499
     Eigenvalues ---    0.15217   0.16004   0.16045   0.16341   0.21380
     Eigenvalues ---    0.28790   0.36402   0.37885   0.53303   0.56790
     Eigenvalues ---    0.57072   0.63288   0.69180
 En-DIIS/RFO-DIIS/Sim-DIIS IScMMF=       -3 using points:     4    3    2    1
 RFO step:  Lambda=-1.72817737D-05.
 DIIS inversion failure, remove point   4.
 DIIS inversion failure, remove point   3.
 RFO-DIIS uses    2 points instead of    4
 DidBck=F Rises=F RFO-DIIS coefs:    3.00000   -2.00000    0.00000    0.00000
 Iteration  1 RMS(Cart)=  0.01181882 RMS(Int)=  0.00021463
 Iteration  2 RMS(Cart)=  0.00018319 RMS(Int)=  0.00000024
 Iteration  3 RMS(Cart)=  0.00000005 RMS(Int)=  0.00000024
 Variable       Old X    -DE/DX   Delta X   Delta X   Delta X     New X
                                 (Linear)    (Quad)   (Total)
    R1        3.20613   0.00006   0.00021   0.00029   0.00050   3.20663
    R2        3.17858   0.00016  -0.00125  -0.00035  -0.00160   3.17698
    R3        3.19451  -0.00046   0.00286   0.00034   0.00320   3.19771
    R4        2.92237  -0.00000  -0.00027  -0.00003  -0.00030   2.92207
    R5        1.80426  -0.00017   0.00031   0.00001   0.00033   1.80459
    R6        1.80289  -0.00002   0.00004  -0.00009  -0.00006   1.80283
    R7        1.80415  -0.00014   0.00034   0.00007   0.00041   1.80456
    A1        1.78366  -0.00026   0.00057  -0.00064  -0.00007   1.78359
    A2        1.79921   0.00038  -0.00174   0.00055  -0.00119   1.79801
    A3        2.00288  -0.00004   0.00010  -0.00019  -0.00008   2.00280
    A4        1.80135  -0.00004   0.00009  -0.00012  -0.00003   1.80133
    A5        2.04065   0.00030  -0.00117   0.00073  -0.00044   2.04021
    A6        2.00367  -0.00033   0.00195  -0.00037   0.00158   2.00525
    A7        1.86278   0.00005  -0.00086  -0.00020  -0.00106   1.86172
    A8        1.93801   0.00005   0.00023  -0.00008   0.00015   1.93817
    A9        1.86533   0.00015  -0.00150  -0.00015  -0.00165   1.86368
    D1        2.11009   0.00006   0.00416   0.00313   0.00729   2.11737
    D2       -2.30779   0.00006   0.00391   0.00297   0.00688  -2.30090
    D3       -0.11647  -0.00010   0.00515   0.00280   0.00795  -0.10852
    D4        0.58354  -0.00004  -0.02133  -0.01781  -0.03914   0.54440
    D5       -1.28011  -0.00035  -0.01967  -0.01817  -0.03784  -1.31795
    D6        2.78571  -0.00010  -0.02150  -0.01809  -0.03959   2.74613
    D7        2.05779   0.00002  -0.00730  -0.00577  -0.01307   2.04472
    D8       -2.37356  -0.00015  -0.00720  -0.00632  -0.01353  -2.38708
    D9       -0.13301  -0.00001  -0.00735  -0.00572  -0.01306  -0.14607
         Item               Value     Threshold  Converged?
 Maximum Force            0.000457     0.000450     NO 
 RMS     Force            0.000190     0.000300     YES
 Maximum Displacement     0.036293     0.001800     NO 
 RMS     Displacement     0.011810     0.001200     NO 
 Predicted change in Energy=-8.686328D-06
 GradGradGradGradGradGradGradGradGradGradGradGradGradGradGradGradGradGrad

                          Input orientation:                          
 ---------------------------------------------------------------------
 Center     Atomic      Atomic             Coordinates (Angstroms)
 Number     Number       Type             X           Y           Z
 ---------------------------------------------------------------------
      1         14           0        0.081038    0.043095    0.106232
      2          8           0       -0.778338    1.004628   -0.996632
      3          1           0       -0.584329    1.913471   -0.776885
      4          8           0       -1.147350   -0.838996    0.840648
      5          1           0       -1.868490   -0.991982    0.235087
      6          8           0        0.834549   -1.098611   -0.889819
      7          1           0        1.775895   -0.971653   -0.791596
      8          8           0        1.035560    0.823783    1.039205
 ---------------------------------------------------------------------
                    Distance matrix (angstroms):
                    1          2          3          4          5
     1  Si   0.000000
     2  O    1.696874   0.000000
     3  H    2.172766   0.954946   0.000000
     4  O    1.681188   2.628825   3.241833   0.000000
     5  H    2.211029   2.586893   3.333888   0.954018   0.000000
     6  O    1.692155   2.652626   3.331456   2.643830   2.929710
     7  H    2.169873   3.236021   3.727574   3.350699   3.786295
     8  O    1.546293   2.732684   2.666391   2.751246   3.518112
                    6          7          8
     6  O    0.000000
     7  H    0.954934   0.000000
     8  O    2.730776   2.668992   0.000000
 Stoichiometry    H3O4Si(1-)
 Framework group  C1[X(H3O4Si)]
 Deg. of freedom    18
 Full point group                 C1      NOp   1
 Largest Abelian subgroup         C1      NOp   1
 Largest concise Abelian subgroup C1      NOp   1
                         Standard orientation:                         
 ---------------------------------------------------------------------
 Center     Atomic      Atomic             Coordinates (Angstroms)
 Number     Number       Type             X           Y           Z
 ---------------------------------------------------------------------
      1         14           0       -0.078794    0.053043   -0.104005
      2          8           0        0.765076    0.977795    1.041464
      3          1           0        0.578196    1.893566    0.845602
      4          8           0        1.158757   -0.811965   -0.843343
      5          1           0        1.868847   -0.985881   -0.230418
      6          8           0       -0.853445   -1.114590    0.844644
      7          1           0       -1.792498   -0.980841    0.734237
      8          8           0       -1.014317    0.865079   -1.029434
 ---------------------------------------------------------------------
 Rotational constants (GHZ):           4.1625943           4.0391573           3.8903732
 Standard basis: def2TZVPP (5D, 7F)
 There are   237 symmetry adapted cartesian basis functions of A   symmetry.
 There are   208 symmetry adapted basis functions of A   symmetry.
   208 basis functions,   324 primitive gaussians,   237 cartesian basis functions
    25 alpha electrons       25 beta electrons
       nuclear repulsion energy       255.6269577364 Hartrees.
 NAtoms=    8 NActive=    8 NUniq=    8 SFac= 1.00D+00 NAtFMM=   60 NAOKFM=F Big=F
 Integral buffers will be    131072 words long.
 Raffenetti 2 integral format.
 Two-electron integral symmetry is turned on.
 Nuclear repulsion after empirical dispersion term =      255.6251306308 Hartrees.
 One-electron integrals computed using PRISM.
   1 Symmetry operations used in ECPInt.
 ECPInt:  NShTT=    2926 NPrTT=    8778 LenC2=    2898 LenP2D=    7193.
 LDataN:  DoStor=T MaxTD1= 6 Len=  172
 NBasis=   208 RedAO= T EigKep=  1.61D-03  NBF=   208
 NBsUse=   208 1.00D-06 EigRej= -1.00D+00 NBFU=   208
 Initial guess from the checkpoint file:  "OnceDeprotonatedSilicateMonomer_cont.chk"
 B after Tr=     0.000000    0.000000    0.000000
         Rot=    0.999965   -0.003666    0.003403    0.006739 Ang=  -0.96 deg.
 ExpMin= 7.01D-02 ExpMax= 4.48D+04 ExpMxC= 1.53D+03 IAcc=3 IRadAn=         5 AccDes= 0.00D+00
 Harris functional with IExCor= 4639 and IRadAn=       5 diagonalized for initial guess.
 HarFok:  IExCor= 4639 AccDes= 0.00D+00 IRadAn=         5 IDoV= 1 UseB2=F ITyADJ=14
 ICtDFT=  3500011 ScaDFX=  1.000000  1.000000  1.000000  1.000000
 FoFCou: FMM=F IPFlag=           0 FMFlag=      100000 FMFlg1=           0
         NFxFlg=           0 DoJE=T BraDBF=F KetDBF=T FulRan=T
         wScrn=  0.000000 ICntrl=       500 IOpCl=  0 I1Cent=   200000004 NGrid=           0
         NMat0=    1 NMatS0=      1 NMatT0=    0 NMatD0=    1 NMtDS0=    0 NMtDT0=    0
 Petite list used in FoFCou.
 Keep R1 ints in memory in canonical form, NReq=494122186.
 Requested convergence on RMS density matrix=1.00D-08 within 128 cycles.
 Requested convergence on MAX density matrix=1.00D-06.
 Requested convergence on             energy=1.00D-06.
 No special actions if energy rises.
 Integral accuracy reduced to 1.0D-05 until final iterations.
 Initial convergence to 1.0D-05 achieved.  Increase integral accuracy.
 SCF Done:  E(RwB97XD) =  -592.487014706     A.U. after   11 cycles
            NFock= 11  Conv=0.60D-08     -V/T= 2.0029
   1 Symmetry operations used in ECPInt.
 ECPInt:  NShTT=    2926 NPrTT=    8778 LenC2=    2898 LenP2D=    7193.
 LDataN:  DoStor=T MaxTD1= 7 Len=  274
 Calling FoFJK, ICntrl=      2127 FMM=F ISym2X=0 I1Cent= 0 IOpClX= 0 NMat=1 NMatS=1 NMatT=0.
 ***** Axes restored to original set *****
 -------------------------------------------------------------------
 Center     Atomic                   Forces (Hartrees/Bohr)
 Number     Number              X              Y              Z
 -------------------------------------------------------------------
      1       14           0.000374011   -0.000757441   -0.000970416
      2        8          -0.000107757    0.000449365    0.000319329
      3        1          -0.000133788   -0.000273642   -0.000101313
      4        8          -0.000445046   -0.000532037   -0.000267361
      5        1          -0.000063961    0.000245112    0.000110490
      6        8           0.000173771    0.000929653    0.001369220
      7        1          -0.000249744   -0.000140659   -0.000183347
      8        8           0.000452514    0.000079649   -0.000276603
 -------------------------------------------------------------------
 Cartesian Forces:  Max     0.001369220 RMS     0.000494784

 GradGradGradGradGradGradGradGradGradGradGradGradGradGradGradGradGradGrad
 Berny optimization.
 Using GEDIIS/GDIIS optimizer.
 FormGI is forming the generalized inverse of G from B-inverse, IUseBI=4.
 Internal  Forces:  Max     0.001264910 RMS     0.000426087
 Search for a local minimum.
 Step number   5 out of a maximum of   35
 All quantities printed in internal units (Hartrees-Bohrs-Radians)
 Mixed Optimization -- En-DIIS/RFO-DIIS
 Swapping is turned off.
 Update second derivatives using D2CorX and points    1    2    3    4    5
 DE= -1.35D-05 DEPred=-8.69D-06 R= 1.55D+00
 TightC=F SS=  1.41D+00  RLast= 7.24D-02 DXNew= 5.0454D-01 2.1718D-01
 Trust test= 1.55D+00 RLast= 7.24D-02 DXMaxT set to 3.00D-01
 ITU=  1  1  1  1  0
     Eigenvalues ---    0.00115   0.03085   0.03209   0.13190   0.13482
     Eigenvalues ---    0.15223   0.16002   0.16084   0.16287   0.21377
     Eigenvalues ---    0.28495   0.36415   0.37888   0.55311   0.56794
     Eigenvalues ---    0.57162   0.62936   0.87742
 En-DIIS/RFO-DIIS/Sim-DIIS IScMMF=       -3 using points:     5    4    3    2    1
 RFO step:  Lambda=-3.15501545D-05.
 DIIS inversion failure, remove point   5.
 DIIS inversion failure, remove point   4.
 DIIS inversion failure, remove point   3.
 RFO-DIIS uses    2 points instead of    5
 DidBck=F Rises=F RFO-DIIS coefs:    3.00000   -2.00000    0.00000    0.00000    0.00000
 Iteration  1 RMS(Cart)=  0.02451013 RMS(Int)=  0.00096549
 Iteration  2 RMS(Cart)=  0.00082298 RMS(Int)=  0.00000077
 Iteration  3 RMS(Cart)=  0.00000096 RMS(Int)=  0.00000047
 Variable       Old X    -DE/DX   Delta X   Delta X   Delta X     New X
                                 (Linear)    (Quad)   (Total)
    R1        3.20663   0.00008   0.00100   0.00015   0.00116   3.20779
    R2        3.17698   0.00045  -0.00320   0.00079  -0.00241   3.17457
    R3        3.19771  -0.00126   0.00640  -0.00227   0.00412   3.20183
    R4        2.92207   0.00015  -0.00059   0.00026  -0.00033   2.92174
    R5        1.80459  -0.00031   0.00066  -0.00030   0.00036   1.80494
    R6        1.80283  -0.00006  -0.00011  -0.00006  -0.00018   1.80265
    R7        1.80456  -0.00028   0.00082  -0.00028   0.00054   1.80510
    A1        1.78359  -0.00056  -0.00014  -0.00155  -0.00169   1.78190
    A2        1.79801   0.00082  -0.00238   0.00243   0.00004   1.79806
    A3        2.00280  -0.00011  -0.00016  -0.00044  -0.00061   2.00219
    A4        1.80133  -0.00008  -0.00005  -0.00023  -0.00029   1.80104
    A5        2.04021   0.00066  -0.00089   0.00215   0.00126   2.04147
    A6        2.00525  -0.00069   0.00316  -0.00221   0.00095   2.00620
    A7        1.86172   0.00013  -0.00212   0.00048  -0.00164   1.86008
    A8        1.93817  -0.00003   0.00031  -0.00054  -0.00023   1.93794
    A9        1.86368   0.00033  -0.00331   0.00118  -0.00213   1.86155
    D1        2.11737   0.00010   0.01457   0.00025   0.01482   2.13219
    D2       -2.30090   0.00009   0.01377   0.00024   0.01401  -2.28689
    D3       -0.10852  -0.00025   0.01591  -0.00104   0.01487  -0.09365
    D4        0.54440   0.00013  -0.07829  -0.00366  -0.08195   0.46245
    D5       -1.31795  -0.00055  -0.07568  -0.00571  -0.08139  -1.39933
    D6        2.74613  -0.00003  -0.07918  -0.00408  -0.08326   2.66287
    D7        2.04472   0.00011  -0.02614  -0.00064  -0.02678   2.01794
    D8       -2.38708  -0.00026  -0.02705  -0.00162  -0.02867  -2.41575
    D9       -0.14607   0.00007  -0.02613  -0.00051  -0.02663  -0.17270
         Item               Value     Threshold  Converged?
 Maximum Force            0.001265     0.000450     NO 
 RMS     Force            0.000426     0.000300     NO 
 Maximum Displacement     0.077317     0.001800     NO 
 RMS     Displacement     0.024435     0.001200     NO 
 Predicted change in Energy=-1.613211D-05
 GradGradGradGradGradGradGradGradGradGradGradGradGradGradGradGradGradGrad

                          Input orientation:                          
 ---------------------------------------------------------------------
 Center     Atomic      Atomic             Coordinates (Angstroms)
 Number     Number       Type             X           Y           Z
 ---------------------------------------------------------------------
      1         14           0        0.082376    0.033725    0.108126
      2          8           0       -0.780267    0.991617   -0.996297
      3          1           0       -0.582141    1.900883   -0.781204
      4          8           0       -1.143209   -0.856845    0.834021
      5          1           0       -1.890662   -0.951068    0.248865
      6          8           0        0.847803   -1.102676   -0.888613
      7          1           0        1.787298   -0.952019   -0.804397
      8          8           0        1.027336    0.820118    1.045740
 ---------------------------------------------------------------------
                    Distance matrix (angstroms):
                    1          2          3          4          5
     1  Si   0.000000
     2  O    1.697487   0.000000
     3  H    2.172273   0.955135   0.000000
     4  O    1.679910   2.626520   3.244814   0.000000
     5  H    2.209639   2.560748   3.302559   0.953924   0.000000
     6  O    1.694336   2.654858   3.328310   2.644245   2.969180
     7  H    2.170518   3.225978   3.708616   3.358771   3.825801
     8  O    1.546119   2.732537   2.663869   2.751055   3.505257
                    6          7          8
     6  O    0.000000
     7  H    0.955217   0.000000
     8  O    2.733330   2.672269   0.000000
 Stoichiometry    H3O4Si(1-)
 Framework group  C1[X(H3O4Si)]
 Deg. of freedom    18
 Full point group                 C1      NOp   1
 Largest Abelian subgroup         C1      NOp   1
 Largest concise Abelian subgroup C1      NOp   1
                         Standard orientation:                         
 ---------------------------------------------------------------------
 Center     Atomic      Atomic             Coordinates (Angstroms)
 Number     Number       Type             X           Y           Z
 ---------------------------------------------------------------------
      1         14           0       -0.076601    0.054745   -0.105261
      2          8           0        0.782478    0.942433    1.058979
      3          1           0        0.614746    1.864884    0.876680
      4          8           0        1.142987   -0.839790   -0.836362
      5          1           0        1.872048   -0.978646   -0.237063
      6          8           0       -0.898340   -1.099145    0.824284
      7          1           0       -1.830885   -0.918829    0.722862
      8          8           0       -0.975062    0.904773   -1.033004
 ---------------------------------------------------------------------
 Rotational constants (GHZ):           4.1617216           4.0383842           3.8884087
 Standard basis: def2TZVPP (5D, 7F)
 There are   237 symmetry adapted cartesian basis functions of A   symmetry.
 There are   208 symmetry adapted basis functions of A   symmetry.
   208 basis functions,   324 primitive gaussians,   237 cartesian basis functions
    25 alpha electrons       25 beta electrons
       nuclear repulsion energy       255.5922946223 Hartrees.
 NAtoms=    8 NActive=    8 NUniq=    8 SFac= 1.00D+00 NAtFMM=   60 NAOKFM=F Big=F
 Integral buffers will be    131072 words long.
 Raffenetti 2 integral format.
 Two-electron integral symmetry is turned on.
 Nuclear repulsion after empirical dispersion term =      255.5904714023 Hartrees.
 One-electron integrals computed using PRISM.
   1 Symmetry operations used in ECPInt.
 ECPInt:  NShTT=    2926 NPrTT=    8778 LenC2=    2899 LenP2D=    7195.
 LDataN:  DoStor=T MaxTD1= 6 Len=  172
 NBasis=   208 RedAO= T EigKep=  1.63D-03  NBF=   208
 NBsUse=   208 1.00D-06 EigRej= -1.00D+00 NBFU=   208
 Initial guess from the checkpoint file:  "OnceDeprotonatedSilicateMonomer_cont.chk"
 B after Tr=    -0.000000    0.000000   -0.000000
         Rot=    0.999870   -0.004944    0.005576    0.014323 Ang=  -1.85 deg.
 ExpMin= 7.01D-02 ExpMax= 4.48D+04 ExpMxC= 1.53D+03 IAcc=3 IRadAn=         5 AccDes= 0.00D+00
 Harris functional with IExCor= 4639 and IRadAn=       5 diagonalized for initial guess.
 HarFok:  IExCor= 4639 AccDes= 0.00D+00 IRadAn=         5 IDoV= 1 UseB2=F ITyADJ=14
 ICtDFT=  3500011 ScaDFX=  1.000000  1.000000  1.000000  1.000000
 FoFCou: FMM=F IPFlag=           0 FMFlag=      100000 FMFlg1=           0
         NFxFlg=           0 DoJE=T BraDBF=F KetDBF=T FulRan=T
         wScrn=  0.000000 ICntrl=       500 IOpCl=  0 I1Cent=   200000004 NGrid=           0
         NMat0=    1 NMatS0=      1 NMatT0=    0 NMatD0=    1 NMtDS0=    0 NMtDT0=    0
 Petite list used in FoFCou.
 Keep R1 ints in memory in canonical form, NReq=494122186.
 Requested convergence on RMS density matrix=1.00D-08 within 128 cycles.
 Requested convergence on MAX density matrix=1.00D-06.
 Requested convergence on             energy=1.00D-06.
 No special actions if energy rises.
 Integral accuracy reduced to 1.0D-05 until final iterations.
 Initial convergence to 1.0D-05 achieved.  Increase integral accuracy.
 SCF Done:  E(RwB97XD) =  -592.487040687     A.U. after   12 cycles
            NFock= 12  Conv=0.40D-08     -V/T= 2.0029
   1 Symmetry operations used in ECPInt.
 ECPInt:  NShTT=    2926 NPrTT=    8778 LenC2=    2899 LenP2D=    7195.
 LDataN:  DoStor=T MaxTD1= 7 Len=  274
 Calling FoFJK, ICntrl=      2127 FMM=F ISym2X=0 I1Cent= 0 IOpClX= 0 NMat=1 NMatS=1 NMatT=0.
 ***** Axes restored to original set *****
 -------------------------------------------------------------------
 Center     Atomic                   Forces (Hartrees/Bohr)
 Number     Number              X              Y              Z
 -------------------------------------------------------------------
      1       14           0.000748176   -0.001571710   -0.001975077
      2        8          -0.000160137    0.000703022    0.000584183
      3        1          -0.000237668   -0.000375699   -0.000137807
      4        8          -0.000975905   -0.000822865   -0.000284353
      5        1           0.000058578    0.000282608    0.000083102
      6        8           0.000081133    0.001808412    0.002343797
      7        1          -0.000410993   -0.000300401   -0.000219382
      8        8           0.000896817    0.000276633   -0.000394464
 -------------------------------------------------------------------
 Cartesian Forces:  Max     0.002343797 RMS     0.000911119

 GradGradGradGradGradGradGradGradGradGradGradGradGradGradGradGradGradGrad
 Berny optimization.
 Using GEDIIS/GDIIS optimizer.
 FormGI is forming the generalized inverse of G from B-inverse, IUseBI=4.
 Internal  Forces:  Max     0.002410404 RMS     0.000763204
 Search for a local minimum.
 Step number   6 out of a maximum of   35
 All quantities printed in internal units (Hartrees-Bohrs-Radians)
 Mixed Optimization -- En-DIIS/RFO-DIIS
 Swapping is turned off.
 Update second derivatives using D2CorX and points    1    2    3    4    5
                                                      6
 DE= -2.60D-05 DEPred=-1.61D-05 R= 1.61D+00
 TightC=F SS=  1.41D+00  RLast= 1.52D-01 DXNew= 5.0454D-01 4.5688D-01
 Trust test= 1.61D+00 RLast= 1.52D-01 DXMaxT set to 4.57D-01
 ITU=  1  1  1  1  1  0
     Eigenvalues ---    0.00044   0.03082   0.03216   0.13186   0.13477
     Eigenvalues ---    0.15227   0.16000   0.16106   0.16270   0.21402
     Eigenvalues ---    0.28273   0.36420   0.37891   0.55933   0.56795
     Eigenvalues ---    0.57240   0.62553   1.17349
 En-DIIS/RFO-DIIS/Sim-DIIS IScMMF=       -3 using points:     6    5    4    3    2    1
 RFO step:  Lambda=-6.70895927D-05.
 DIIS inversion failure, remove point   6.
 DIIS inversion failure, remove point   5.
 DIIS inversion failure, remove point   4.
 DIIS inversion failure, remove point   3.
 RFO-DIIS uses    2 points instead of    6
 DidBck=F Rises=F RFO-DIIS coefs:    3.00000   -2.00000    0.00000    0.00000    0.00000
                  RFO-DIIS coefs:    0.00000
 Iteration  1 RMS(Cart)=  0.05810240 RMS(Int)=  0.00564344
 Iteration  2 RMS(Cart)=  0.00482907 RMS(Int)=  0.00002577
 Iteration  3 RMS(Cart)=  0.00003436 RMS(Int)=  0.00000415
 Iteration  4 RMS(Cart)=  0.00000000 RMS(Int)=  0.00000415
 Variable       Old X    -DE/DX   Delta X   Delta X   Delta X     New X
                                 (Linear)    (Quad)   (Total)
    R1        3.20779   0.00010   0.00231   0.00056   0.00288   3.21066
    R2        3.17457   0.00087  -0.00483   0.00024  -0.00458   3.16999
    R3        3.20183  -0.00241   0.00824  -0.00163   0.00661   3.20844
    R4        2.92174   0.00045  -0.00066   0.00035  -0.00030   2.92144
    R5        1.80494  -0.00044   0.00071  -0.00015   0.00056   1.80551
    R6        1.80265  -0.00012  -0.00036  -0.00017  -0.00053   1.80213
    R7        1.80510  -0.00047   0.00107  -0.00018   0.00090   1.80599
    A1        1.78190  -0.00095  -0.00338  -0.00251  -0.00589   1.77601
    A2        1.79806   0.00142   0.00009   0.00322   0.00330   1.80136
    A3        2.00219  -0.00026  -0.00121  -0.00120  -0.00241   1.99978
    A4        1.80104  -0.00020  -0.00057  -0.00083  -0.00140   1.79964
    A5        2.04147   0.00118   0.00252   0.00346   0.00597   2.04744
    A6        2.00620  -0.00113   0.00190  -0.00211  -0.00021   2.00599
    A7        1.86008   0.00023  -0.00328   0.00002  -0.00326   1.85682
    A8        1.93794  -0.00022  -0.00046  -0.00142  -0.00187   1.93606
    A9        1.86155   0.00053  -0.00426   0.00058  -0.00369   1.85786
    D1        2.13219   0.00018   0.02964   0.00583   0.03548   2.16768
    D2       -2.28689   0.00010   0.02802   0.00512   0.03314  -2.25376
    D3       -0.09365  -0.00044   0.02973   0.00408   0.03380  -0.05985
    D4        0.46245   0.00036  -0.16389  -0.03279  -0.19667   0.26578
    D5       -1.39933  -0.00080  -0.16277  -0.03521  -0.19798  -1.59731
    D6        2.66287   0.00003  -0.16651  -0.03411  -0.20063   2.46224
    D7        2.01794   0.00023  -0.05356  -0.00967  -0.06324   1.95471
    D8       -2.41575  -0.00041  -0.05734  -0.01163  -0.06896  -2.48471
    D9       -0.17270   0.00020  -0.05327  -0.00923  -0.06249  -0.23520
         Item               Value     Threshold  Converged?
 Maximum Force            0.002410     0.000450     NO 
 RMS     Force            0.000763     0.000300     NO 
 Maximum Displacement     0.181632     0.001800     NO 
 RMS     Displacement     0.057560     0.001200     NO 
 Predicted change in Energy=-3.765058D-05
 GradGradGradGradGradGradGradGradGradGradGradGradGradGradGradGradGradGrad

                          Input orientation:                          
 ---------------------------------------------------------------------
 Center     Atomic      Atomic             Coordinates (Angstroms)
 Number     Number       Type             X           Y           Z
 ---------------------------------------------------------------------
      1         14           0        0.084416    0.011117    0.110021
      2          8           0       -0.784365    0.963151   -0.996994
      3          1           0       -0.577034    1.872811   -0.791118
      4          8           0       -1.137665   -0.900196    0.810009
      5          1           0       -1.936339   -0.854952    0.290864
      6          8           0        0.880450   -1.111324   -0.884511
      7          1           0        1.812419   -0.906379   -0.831808
      8          8           0        1.006653    0.809508    1.059777
 ---------------------------------------------------------------------
                    Distance matrix (angstroms):
                    1          2          3          4          5
     1  Si   0.000000
     2  O    1.699009   0.000000
     3  H    2.171514   0.955433   0.000000
     4  O    1.677485   2.619568   3.250765   0.000000
     5  H    2.205954   2.508210   3.234051   0.953645   0.000000
     6  O    1.697833   2.662275   3.322355   2.643627   3.062929
     7  H    2.171366   3.204015   3.665383   3.376180   3.913594
     8  O    1.545959   2.731604   2.657911   2.753829   3.467400
                    6          7          8
     6  O    0.000000
     7  H    0.955691   0.000000
     8  O    2.736016   2.677988   0.000000
 Stoichiometry    H3O4Si(1-)
 Framework group  C1[X(H3O4Si)]
 Deg. of freedom    18
 Full point group                 C1      NOp   1
 Largest Abelian subgroup         C1      NOp   1
 Largest concise Abelian subgroup C1      NOp   1
                         Standard orientation:                         
 ---------------------------------------------------------------------
 Center     Atomic      Atomic             Coordinates (Angstroms)
 Number     Number       Type             X           Y           Z
 ---------------------------------------------------------------------
      1         14           0       -0.072040    0.056667   -0.107883
      2          8           0        0.812636    0.875831    1.089175
      3          1           0        0.680297    1.808767    0.931158
      4          8           0        1.111553   -0.900523   -0.812759
      5          1           0        1.887572   -0.944801   -0.260243
      6          8           0       -0.989755   -1.059536    0.783481
      7          1           0       -1.901400   -0.783380    0.706115
      8          8           0       -0.891673    0.974988   -1.043231
 ---------------------------------------------------------------------
 Rotational constants (GHZ):           4.1660758           4.0390101           3.8779694
 Standard basis: def2TZVPP (5D, 7F)
 There are   237 symmetry adapted cartesian basis functions of A   symmetry.
 There are   208 symmetry adapted basis functions of A   symmetry.
   208 basis functions,   324 primitive gaussians,   237 cartesian basis functions
    25 alpha electrons       25 beta electrons
       nuclear repulsion energy       255.5371898277 Hartrees.
 NAtoms=    8 NActive=    8 NUniq=    8 SFac= 1.00D+00 NAtFMM=   60 NAOKFM=F Big=F
 Integral buffers will be    131072 words long.
 Raffenetti 2 integral format.
[...]
           may cause significant error
 Rotational temperatures (Kelvin)      0.19387     0.19378     0.19299
 Rotational constants (GHZ):           4.03960     4.03764     4.02121
 Zero-point vibrational energy     122000.2 (Joules/Mol)
                                   29.15876 (Kcal/Mol)
 Warning -- explicit consideration of   8 degrees of freedom as
           vibrations may cause significant error
 Vibrational temperatures:    176.08   186.52   234.03   450.35   451.17
          (Kelvin)            524.39   574.37   575.05  1043.46  1171.03
                             1171.61  1318.95  1319.66  1353.45  1670.60
                             5707.93  5708.36  5709.50
 
 Zero-point correction=                           0.046467 (Hartree/Particle)
 Thermal correction to Energy=                    0.053486
 Thermal correction to Enthalpy=                  0.054430
 Thermal correction to Gibbs Free Energy=         0.015985
 Sum of electronic and zero-point Energies=           -592.441937
 Sum of electronic and thermal Energies=              -592.434919
 Sum of electronic and thermal Enthalpies=            -592.433975
 Sum of electronic and thermal Free Energies=         -592.472420
 
                     E (Thermal)             CV                S
                      KCal/Mol        Cal/Mol-Kelvin    Cal/Mol-Kelvin
 Total                   33.563             23.159             80.914
 Electronic               0.000              0.000              0.000
 Translational            0.889              2.981             39.564
 Rotational               0.889              2.981             25.997
 Vibrational             31.785             17.197             15.353
 Vibration     1          0.610              1.930              3.062
 Vibration     2          0.612              1.924              2.951
 Vibration     3          0.623              1.888              2.519
 Vibration     4          0.701              1.649              1.346
 Vibration     5          0.701              1.648              1.343
 Vibration     6          0.738              1.545              1.103
 Vibration     7          0.765              1.472              0.966
 Vibration     8          0.766              1.471              0.964
                       Q            Log10(Q)             Ln(Q)
 Total Bot       0.444076D-07         -7.352543        -16.929856
 Total V=0       0.104949D+15         14.020977         32.284492
 Vib (Bot)       0.113893D-19        -19.943502        -45.921611
 Vib (Bot)    1  0.166886D+01          0.222420          0.512141
 Vib (Bot)    2  0.157269D+01          0.196643          0.452788
 Vib (Bot)    3  0.124183D+01          0.094062          0.216586
 Vib (Bot)    4  0.603061D+00         -0.219639         -0.505737
 Vib (Bot)    5  0.601752D+00         -0.220583         -0.507910
 Vib (Bot)    6  0.501398D+00         -0.299817         -0.690355
 Vib (Bot)    7  0.446730D+00         -0.349955         -0.805802
 Vib (Bot)    8  0.446047D+00         -0.350619         -0.807330
 Vib (V=0)       0.269164D+02          1.430018          3.292738
 Vib (V=0)    1  0.224215D+01          0.350665          0.807436
 Vib (V=0)    2  0.215026D+01          0.332491          0.765589
 Vib (V=0)    3  0.183871D+01          0.264513          0.609064
 Vib (V=0)    4  0.128338D+01          0.108355          0.249496
 Vib (V=0)    5  0.128237D+01          0.108014          0.248711
 Vib (V=0)    6  0.120810D+01          0.082101          0.189046
 Vib (V=0)    7  0.117050D+01          0.068371          0.157429
 Vib (V=0)    8  0.117004D+01          0.068202          0.157041
 Electronic      0.100000D+01          0.000000          0.000000
 Translational   0.363833D+08          7.560903         17.409622
 Rotational      0.107166D+06          5.030057         11.582133
 ***** Axes restored to original set *****
 -------------------------------------------------------------------
 Center     Atomic                   Forces (Hartrees/Bohr)
 Number     Number              X              Y              Z
 -------------------------------------------------------------------
      1       14          -0.000017604    0.000013779    0.000039395
      2        8           0.000002708    0.000010193   -0.000023959
      3        1          -0.000006852   -0.000000502    0.000009338
      4        8           0.000020482   -0.000005223    0.000005038
      5        1          -0.000006084   -0.000003624   -0.000002368
      6        8           0.000015542   -0.000016111   -0.000011162
      7        1          -0.000010233   -0.000002058   -0.000007746
      8        8           0.000002042    0.000003546   -0.000008536
 -------------------------------------------------------------------
 Cartesian Forces:  Max     0.000039395 RMS     0.000013360
 FormGI is forming the generalized inverse of G from B-inverse, IUseBI=4.

 GradGradGradGradGradGradGradGradGradGradGradGradGradGradGradGradGradGrad
 Berny optimization.
 Internal  Forces:  Max     0.000023853 RMS     0.000010600
 Search for a local minimum.
 Step number   1 out of a maximum of    2
 All quantities printed in internal units (Hartrees-Bohrs-Radians)
 Second derivative matrix not updated -- analytic derivatives used.
 ITU=  0
     Eigenvalues ---    0.00077   0.00085   0.00097   0.06955   0.06975
     Eigenvalues ---    0.07153   0.12590   0.12606   0.13378   0.15054
     Eigenvalues ---    0.15063   0.26084   0.26129   0.30910   0.50142
     Eigenvalues ---    0.56779   0.56791   0.56865
 Angle between quadratic step and forces=  72.66 degrees.
 Linear search not attempted -- first point.
 Iteration  1 RMS(Cart)=  0.00320099 RMS(Int)=  0.00001384
 Iteration  2 RMS(Cart)=  0.00001143 RMS(Int)=  0.00000009
 Iteration  3 RMS(Cart)=  0.00000000 RMS(Int)=  0.00000009
 Variable       Old X    -DE/DX   Delta X   Delta X   Delta X     New X
                                 (Linear)    (Quad)   (Total)
    R1        3.18381   0.00002   0.00000   0.00014   0.00014   3.18395
    R2        3.18388  -0.00000   0.00000   0.00010   0.00010   3.18398
    R3        3.18404   0.00002   0.00000  -0.00011  -0.00011   3.18394
    R4        2.93354  -0.00000   0.00000  -0.00002  -0.00002   2.93352
    R5        1.80370  -0.00000   0.00000   0.00002   0.00002   1.80373
    R6        1.80372  -0.00000   0.00000  -0.00001  -0.00001   1.80371
    R7        1.80375  -0.00001   0.00000  -0.00004  -0.00004   1.80371
    A1        1.79938   0.00002   0.00000   0.00092   0.00092   1.80030
    A2        1.80032  -0.00000   0.00000  -0.00026  -0.00026   1.80006
    A3        2.01193  -0.00001   0.00000  -0.00082  -0.00082   2.01110
    A4        1.80066  -0.00002   0.00000  -0.00081  -0.00081   1.79985
    A5        2.01132   0.00001   0.00000  -0.00000  -0.00000   2.01131
    A6        2.01056   0.00001   0.00000   0.00095   0.00095   2.01151
    A7        1.87384  -0.00001   0.00000  -0.00089  -0.00089   1.87295
    A8        1.87274   0.00001   0.00000   0.00049   0.00049   1.87324
    A9        1.87267   0.00000   0.00000   0.00055   0.00055   1.87321
    D1        2.55368   0.00001   0.00000  -0.00843  -0.00843   2.54525
    D2       -1.85969  -0.00001   0.00000  -0.00909  -0.00909  -1.86878
    D3        0.34687  -0.00001   0.00000  -0.00860  -0.00860   0.33827
    D4       -1.87067  -0.00000   0.00000   0.00555   0.00555  -1.86513
    D5        2.54295   0.00000   0.00000   0.00579   0.00579   2.54874
    D6        0.33653   0.00001   0.00000   0.00520   0.00520   0.34172
    D7        2.54422  -0.00000   0.00000   0.00320   0.00320   2.54743
    D8       -1.87012   0.00001   0.00000   0.00386   0.00386  -1.86626
    D9        0.33679   0.00000   0.00000   0.00385   0.00385   0.34064
         Item               Value     Threshold  Converged?
 Maximum Force            0.000024     0.000450     YES
 RMS     Force            0.000011     0.000300     YES
 Maximum Displacement     0.007902     0.001800     NO 
 RMS     Displacement     0.003201     0.001200     NO 
 Predicted change in Energy=-1.505414D-07
                           ----------------------------
                           ! Non-Optimized Parameters !
                           ! (Angstroms and Degrees)  !
 --------------------------                            --------------------------
 ! Name  Definition              Value          Derivative Info.                !
 --------------------------------------------------------------------------------
 ! R1    R(1,2)                  1.6849         -DE/DX =    0.0                 !
 ! R2    R(1,4)                  1.6849         -DE/DX =    0.0                 !
 ! R3    R(1,6)                  1.6849         -DE/DX =    0.0                 !
 ! R4    R(1,8)                  1.5524         -DE/DX =    0.0                 !
 ! R5    R(2,3)                  0.9545         -DE/DX =    0.0                 !
 ! R6    R(4,5)                  0.9545         -DE/DX =    0.0                 !
 ! R7    R(6,7)                  0.9545         -DE/DX =    0.0                 !
 ! A1    A(2,1,4)              103.1498         -DE/DX =    0.0                 !
 ! A2    A(2,1,6)              103.1359         -DE/DX =    0.0                 !
 ! A3    A(2,1,8)              115.2277         -DE/DX =    0.0                 !
 ! A4    A(4,1,6)              103.1236         -DE/DX =    0.0                 !
 ! A5    A(4,1,8)              115.2399         -DE/DX =    0.0                 !
 ! A6    A(6,1,8)              115.251          -DE/DX =    0.0                 !
 ! A7    A(1,2,3)              107.3121         -DE/DX =    0.0                 !
 ! A8    A(1,4,5)              107.3286         -DE/DX =    0.0                 !
 ! A9    A(1,6,7)              107.3273         -DE/DX =    0.0                 !
 ! D1    D(4,1,2,3)            145.8322         -DE/DX =    0.0                 !
 ! D2    D(6,1,2,3)           -107.0732         -DE/DX =    0.0                 !
 ! D3    D(8,1,2,3)             19.3813         -DE/DX =    0.0                 !
 ! D4    D(2,1,4,5)           -106.8639         -DE/DX =    0.0                 !
 ! D5    D(6,1,4,5)            146.0321         -DE/DX =    0.0                 !
 ! D6    D(8,1,4,5)             19.5792         -DE/DX =    0.0                 !
 ! D7    D(2,1,6,7)            145.9568         -DE/DX =    0.0                 !
 ! D8    D(4,1,6,7)           -106.9286         -DE/DX =    0.0                 !
 ! D9    D(8,1,6,7)             19.5172         -DE/DX =    0.0                 !
 --------------------------------------------------------------------------------
 GradGradGradGradGradGradGradGradGradGradGradGradGradGradGradGradGradGrad


 ----------------------------------------------------------------------

 Electric dipole moment (input orientation):
 (Debye = 10**-18 statcoulomb cm , SI units = C m)
                  (au)            (Debye)         (10**-30 SI)
   Tot        0.293476D+00      0.745941D+00      0.248819D+01
   x         -0.122430D+00     -0.311187D+00     -0.103801D+01
   y         -0.128162D+00     -0.325755D+00     -0.108660D+01
   z         -0.233909D+00     -0.594537D+00     -0.198316D+01

 Dipole polarizability, Alpha (input orientation).
 (esu units = cm**3 , SI units = C**2 m**2 J**-1)
 Alpha(0;0):
               (au)            (10**-24 esu)      (10**-40 SI)
   iso        0.399279D+02      0.591671D+01      0.658322D+01
   aniso      0.505123D+00      0.748515D-01      0.832836D-01
   xx         0.400074D+02      0.592848D+01      0.659632D+01
   yx        -0.743782D-01     -0.110217D-01     -0.122633D-01
   yy         0.399879D+02      0.592559D+01      0.659311D+01
   zx        -0.172425D+00     -0.255508D-01     -0.284291D-01
   zy        -0.187404D+00     -0.277704D-01     -0.308988D-01
   zz         0.397885D+02      0.589605D+01      0.656024D+01

 ----------------------------------------------------------------------

 Dipole orientation:
    14         -0.01387248         -0.11907515          0.12180631
     8         -0.59951275         -2.93517598          1.48681276
     1         -0.23993059         -4.21128332          0.26386783
     8         -2.19586594          1.78891885          1.43920331
     1         -3.43850524          2.13365763          0.17808672
     8          2.69608416          0.80994810          1.51147676
     1          3.64679578          1.71989994          0.27791982
     8          0.02784377         -0.13346819         -2.81139927

 Electric dipole moment (dipole orientation):
 (Debye = 10**-18 statcoulomb cm , SI units = C m)
                  (au)            (Debye)         (10**-30 SI)
   Tot        0.293476D+00      0.745941D+00      0.248819D+01
   x          0.000000D+00      0.000000D+00      0.000000D+00
   y          0.000000D+00      0.000000D+00      0.000000D+00
   z          0.293476D+00      0.745941D+00      0.248819D+01

 Dipole polarizability, Alpha (dipole orientation).
 (esu units = cm**3 , SI units = C**2 m**2 J**-1)
 Alpha(0;0):
               (au)            (10**-24 esu)      (10**-40 SI)
   iso        0.399279D+02      0.591671D+01      0.658322D+01
   aniso      0.505123D+00      0.748515D-01      0.832836D-01
   xx         0.400968D+02      0.594173D+01      0.661106D+01
   yx        -0.233898D-01     -0.346600D-02     -0.385645D-02
   yy         0.400946D+02      0.594140D+01      0.661070D+01
   zx        -0.260720D-02     -0.386348D-03     -0.429870D-03
   zy        -0.831497D-02     -0.123215D-02     -0.137095D-02
   zz         0.395924D+02      0.586699D+01      0.652791D+01

 ----------------------------------------------------------------------
 Unable to Open any file for archive entry.
 1\1\GINC-CDR846\Freq\RwB97XD\def2TZVPP\H3O4Si1(1-)\ARHENDER\26-Oct-202
 3\0\\#N Geom=AllCheck Guess=TCheck SCRF=Check GenChk RwB97XD/def2TZVPP
  Freq\\Once Deprotonated Silicate Monomer Opt Freq\\-1,1\Si,-0.0399079
 877,0.0289202421,-0.0758292643\O,-0.7722167901,1.076960497,-1.17304575
 44\H,-0.3988461984,1.9439066219,-1.0315261586\O,-1.2712133711,-1.06097
 89904,0.2911528025\H,-1.5682093175,-0.8659457944,1.1770442715\O,0.9983
 160622,-0.8770514931,-1.0455057455\H,1.7738239949,-1.0734111834,-0.524
 8226776\O,0.6267886077,0.7113361001,1.1487725263\\Version=ES64L-G16Rev
 C.01\State=1-A\HF=-592.4884046\RMSD=7.031e-10\RMSF=1.336e-05\ZeroPoint
 =0.0464674\Thermal=0.0534855\ETot=-592.4349191\HTot=-592.4339749\GTot=
 -592.4724197\Dipole=-0.1224304,-0.128162,-0.2339087\DipoleDeriv=1.9757
 266,-0.0551291,-0.0310984,0.0025133,1.9734383,-0.064932,-0.0634028,-0.
 0334831,1.914568,-0.7555602,0.2909924,-0.168413,0.214227,-0.8693404,0.
 2832907,-0.1649044,0.3719057,-0.9852061,0.2371626,-0.0897715,-0.004599
 5,-0.080977,0.1941353,-0.0570982,-0.0038655,-0.0622303,0.2994636,-1.07
 71788,-0.3310319,0.1286426,-0.3549696,-0.9370402,0.2008094,0.0531567,0
 .1144879,-0.5964858,0.3090737,0.0431505,0.0202125,0.0454282,0.2744557,
 -0.067234,0.0239068,-0.0582213,0.1478145,-0.8846397,0.2054617,0.268884
 6,0.250732,-0.9045653,-0.219109,0.3720826,-0.25175,-0.8213038,0.220102
 3,-0.0050566,-0.0947404,-0.0063403,0.2962962,0.039527,-0.1046743,0.041
 1098,0.2152755,-1.0246865,-0.0586155,-0.1188885,-0.0706136,-1.0273797,
 -0.115254,-0.1122992,-0.1218187,-1.174126\Polar=40.0073556,-0.0743782,
 39.9878622,-0.1724255,-0.187404,39.7885259\Quadrupole=1.7121797,1.6120
 89,-3.3242687,-2.1637323,-3.9172639,-4.0288856\PG=C01 [X(H3O4Si1)]\NIm
 ag=0\\0.46256645,0.05161264,0.46469432,0.09228757,0.09458400,0.5820545
 9,-0.07504183,0.03013793,-0.04780746,0.16309274,0.04993777,-0.10631194
 ,0.07250222,0.13281042,0.59065671,-0.05341971,0.05277135,-0.11787138,0
 .10425955,-0.01848385,0.14711345,0.00418412,0.01166166,-0.00248964,-0.
 08889998,-0.19813008,-0.03575072,0.08976460,-0.01010749,-0.02281921,-0
 .00271900,-0.17792429,-0.46340325,-0.05445682,0.18721722,0.48278892,0.
 00340170,0.02060292,0.00283882,-0.04266128,-0.07841465,-0.02274345,0.0
 3775473,0.05855331,0.02333396,-0.13130970,-0.08460711,0.01408359,0.006
 27265,-0.00401394,0.00187511,0.00030964,0.00076606,-0.00009609,0.21178
 822,-0.07380567,-0.11213520,0.00725502,-0.00822463,-0.01440467,0.01104
 397,-0.00082453,0.00043302,0.00315394,0.08128991,0.15751751,0.03153142
 ,0.02698739,-0.05621350,0.00709387,0.01772730,0.00037808,-0.00004663,0
 .00210476,-0.00355044,-0.19856350,0.07226326,0.53161978,-0.00744497,0.
 00114908,0.02480812,-0.00101367,0.00017780,-0.00126028,0.00030942,-0.0
 0018413,0.00034543,-0.06471154,0.01756161,0.15017293,0.07426348,-0.010
 26109,0.00222238,0.01740430,-0.00036246,-0.00327563,-0.00074953,-0.000
 01538,-0.00073883,0.00072695,0.02913028,-0.03346604,-0.11063172,-0.020
 82627,0.03558395,0.00412932,-0.00479882,-0.01054706,-0.00032840,0.0003
 7488,0.00111072,0.00001038,0.00020268,-0.00013478,0.17190103,-0.090043
 88,-0.47657945,-0.17244119,0.09513447,0.48582986,-0.10422632,0.0572844
 8,0.06514211,-0.00723558,0.01813864,0.00066990,-0.00302913,0.00108938,
 0.00000820,-0.01470989,0.00248962,0.01903657,-0.00456934,-0.00072294,-
 0.00052298,0.49742599,0.04889934,-0.09141779,-0.06039166,0.01485976,-0
 .00882959,-0.00028701,0.00041736,0.00123063,-0.00020582,-0.00311534,0.
 00812117,0.00250933,-0.00160647,0.00003712,0.00036540,-0.17169839,0.12
 218125,0.04074793,-0.04822062,-0.10422444,-0.00464951,0.00674894,0.008
 41656,-0.00071460,0.00099096,-0.00133137,0.01216371,-0.00062541,-0.001
 01624,0.00069580,-0.00081054,0.00168716,0.16389326,0.01484237,0.281525
 46,-0.01942442,0.00701339,-0.01313700,0.00102193,0.00093550,0.00142727
 ,-0.00052206,0.00036837,-0.00019639,0.00075544,-0.00003483,0.00212294,
 -0.00063801,-0.00022553,0.00024062,-0.37327713,0.10381535,-0.22223869,
 0.39010568,0.01768346,-0.00149983,0.00751379,0.00257143,-0.00371115,-0
 .00142305,0.00070385,-0.00040851,0.00024497,-0.00094613,-0.00125584,0.
 00031159,0.00006992,0.00032321,0.00011109,0.09206711,-0.02944798,0.046
 27985,-0.10760793,0.03470464,0.01439072,-0.00593614,0.00511194,0.00041
 610,-0.00138941,-0.00014475,0.00008761,-0.00021039,0.00037175,0.000905
 17,-0.00004846,-0.00266587,0.00079700,0.00024339,-0.00024885,-0.248441
 78,0.06066597,-0.17210166,0.23384859,-0.05521482,0.17095553,-0.1293033
 4,-0.07425207,-0.13288729,0.00180374,0.00014388,-0.01780113,-0.0021166
 1,-0.00122513,0.00144369,-0.00839483,-0.01845148,-0.01134761,0.0038046
 3,0.00328339,-0.00298878,0.00962140,0.00842839,0.01010211,0.00197855,-
 0.00454171,-0.00200341,0.12260645,-0.07395896,-0.13273273,-0.13614867,
 0.00613184,0.00927952,0.01158493,-0.00103012,0.00291725,-0.00466161,-0
 .01850374,-0.00480994,-0.01127192,0.00365847,-0.00068616,-0.00134582,0
 .00135210,-0.00187481,-0.01920555,-0.00426433,0.00129547,0.00188987,0.
 08661474,0.12661140,-0.13306895,-0.13599009,-0.30114897,-0.01632288,0.
 00093458,-0.01625923,0.00114887,-0.00446550,0.00121551,-0.00226902,-0.
 00299844,0.00802764,-0.00311781,-0.00131734,-0.00111760,0.00021473,-0.
 01749857,-0.01295547,-0.00206734,0.00217659,-0.00127808,0.15548241,0.1
 5915877,0.32351620\\0.00001760,-0.00001378,-0.00003940,-0.00000271,-0.
 00001019,0.00002396,0.00000685,0.00000050,-0.00000934,-0.00002048,0.00
 000522,-0.00000504,0.00000608,0.00000362,0.00000237,-0.00001554,0.0000
 1611,0.00001116,0.00001023,0.00000206,0.00000775,-0.00000204,-0.000003
 55,0.00000854\\\@
 The archive entry for this job was punched.


 IT IS BY LOGIC THAT WE PROVE, BUT BY INTUITION THAT WE DISCOVER.
     -- J.H.POINCARE (1854-1912)
 Job cpu time:       0 days  0 hours 23 minutes 18.9 seconds.
 Elapsed time:       0 days  0 hours  1 minutes 30.5 seconds.
 File lengths (MBytes):  RWF=     41 Int=      0 D2E=      0 Chk=      5 Scr=      1
 Normal termination of Gaussian 16 at Thu Oct 26 09:58:11 2023.
