 Entering Gaussian System, Link 0=/opt/software/gaussian/g16.c01/g16
 Initial command:
 /opt/software/gaussian/g16.c01/l1.exe "/scratch/arhender/16335578/Gau-103766.inp" -scrdir="/scratch/arhender/16335578/"
 Entering Link 1 = /opt/software/gaussian/g16.c01/l1.exe PID=    103768.
  
 Copyright (c) 1988-2019, Gaussian, Inc.  All Rights Reserved.
  
 This is part of the Gaussian(R) 16 program.  It is based on
 the Gaussian(R) 09 system (copyright 2009, Gaussian, Inc.),
 the Gaussian(R) 03 system (copyright 2003, Gaussian, Inc.),
 the Gaussian(R) 98 system (copyright 1998, Gaussian, Inc.),
 the Gaussian(R) 94 system (copyright 1995, Gaussian, Inc.),
 the Gaussian 92(TM) system (copyright 1992, Gaussian, Inc.),
 the Gaussian 90(TM) system (copyright 1990, Gaussian, Inc.),
 the Gaussian 88(TM) system (copyright 1988, Gaussian, Inc.),
 the Gaussian 86(TM) system (copyright 1986, Carnegie Mellon
 University), and the Gaussian 82(TM) system (copyright 1983,
 Carnegie Mellon University). Gaussian is a federally registered
 trademark of Gaussian, Inc.
  
 This software contains proprietary and confidential information,
 including trade secrets, belonging to Gaussian, Inc.
  
 This software is provided under written license and may be
 used, copied, transmitted, or stored only in accord with that
 written license.
  
 The following legend is applicable only to US Government
 contracts under FAR:
  
                    RESTRICTED RIGHTS LEGEND
  
 Use, reproduction and disclosure by the US Government is
 subject to restrictions as set forth in subparagraphs (a)
 and (c) of the Commercial Computer Software - Restricted
 Rights clause in FAR 52.227-19.
  
 Gaussian, Inc.
 340 Quinnipiac St., Bldg. 40, Wallingford CT 06492
  
  
 ---------------------------------------------------------------
 Warning -- This program may not be used in any manner that
 competes with the business of Gaussian, Inc. or will provide
 assistance to any competitor of Gaussian, Inc.  The licensee
 of this program is prohibited from giving any competitor of
 Gaussian, Inc. access to this program.  By using this program,
 the user acknowledges that Gaussian, Inc. is engaged in the
 business of creating and licensing software in the field of
 computational chemistry and represents and warrants to the
 licensee that it is not a competitor of Gaussian, Inc. and that
 it will not use this program in any manner prohibited above.
 ---------------------------------------------------------------
  

 Cite this work as:
 Gaussian 16, Revision C.01,
 M. J. Frisch, G. W. Trucks, H. B. Schlegel, G. E. Scuseria, 
 M. A. Robb, J. R. Cheeseman, G. Scalmani, V. Barone, 
 G. A. Petersson, H. Nakatsuji, X. Li, M. Caricato, A. V. Marenich, 
 J. Bloino, B. G. Janesko, R. Gomperts, B. Mennucci, H. P. Hratchian, 
 J. V. Ortiz, A. F. Izmaylov, J. L. Sonnenberg, D. Williams-Young, 
 F. Ding, F. Lipparini, F. Egidi, J. Goings, B. Peng, A. Petrone, 
 T. Henderson, D. Ranasinghe, V. G. Zakrzewski, J. Gao, N. Rega, 
 G. Zheng, W. Liang, M. Hada, M. Ehara, K. Toyota, R. Fukuda, 
 J. Hasegawa, M. Ishida, T. Nakajima, Y. Honda, O. Kitao, H. Nakai, 
 T. Vreven, K. Throssell, J. A. Montgomery, Jr., J. E. Peralta, 
 F. Ogliaro, M. J. Bearpark, J. J. Heyd, E. N. Brothers, K. N. Kudin, 
 V. N. Staroverov, T. A. Keith, R. Kobayashi, J. Normand, 
 K. Raghavachari, A. P. Rendell, J. C. Burant, S. S. Iyengar, 
 J. Tomasi, M. Cossi, J. M. Millam, M. Klene, C. Adamo, R. Cammi, 
 J. W. Ochterski, R. L. Martin, K. Morokuma, O. Farkas, 
 J. B. Foresman, and D. J. Fox, Gaussian, Inc., Wallingford CT, 2019.
 
 ******************************************
 Gaussian 16:  ES64L-G16RevC.01  3-Jul-2019
                25-Oct-2023 
 ******************************************
 %chk=OnceDeprotonatedBIQLEG.chk
 %mem=8GB
 %nprocs=16
 Will use up to   16 processors via shared memory.
 ---------------------------------------------
 # opt freq wb97xd/def2tzvpp geom=connectivity
 ---------------------------------------------
 1/18=20,19=15,26=3,38=1,57=2/1,3;
 2/9=110,12=2,17=6,18=5,40=1/2;
 3/5=44,7=202,11=2,25=1,30=1,71=1,74=-58/1,2,3;
 4//1;
 5/5=2,38=5/2;
 6/7=2,8=2,9=2,10=2,28=1/1;
 7//1,2,3,16;
 1/18=20,19=15,26=3/3(2);
 2/9=110/2;
 99//99;
 2/9=110/2;
 3/5=44,7=202,11=2,25=1,30=1,71=1,74=-58/1,2,3;
 4/5=5,16=3,69=1/1;
 5/5=2,38=5/2;
 7//1,2,3,16;
 1/18=20,19=15,26=3/3(-5);
 2/9=110/2;
 6/7=2,8=2,9=2,10=2,19=2,28=1/1;
 99/9=1/99;
 -----------------------------
 OnceDeprotonated Bidentate QL
 -----------------------------
 Symbolic Z-matrix:
 Charge = -1 Multiplicity = 1
 Si                    0.6056    0.        0. 
 O                     1.53623   0.74455  -1.10955 
 O                    -0.46334  -0.94235  -0.80954 
 O                    -0.46334   0.94235   0.80954 
 O                     1.53624  -0.74455   1.10955 
 H                     2.29812  -1.23251   0.80805 
 C                    -1.77084   0.70715   0.30224 
 H                    -2.49162   0.79825   1.11438 
 H                    -2.00385   1.45533  -0.46038 
 C                    -1.77084  -0.70715  -0.30224 
 H                    -2.00385  -1.45533   0.46038 
 H                    -2.49161  -0.79825  -1.11438 
 

 GradGradGradGradGradGradGradGradGradGradGradGradGradGradGradGradGradGrad
 Berny optimization.
 Initialization pass.
                           ----------------------------
                           !    Initial Parameters    !
                           ! (Angstroms and Degrees)  !
 --------------------------                            --------------------------
 ! Name  Definition              Value          Derivative Info.                !
 --------------------------------------------------------------------------------
 ! R1    R(1,2)                  1.6284         estimate D2E/DX2                !
 ! R2    R(1,3)                  1.6389         estimate D2E/DX2                !
 ! R3    R(1,4)                  1.6389         estimate D2E/DX2                !
 ! R4    R(1,5)                  1.6284         estimate D2E/DX2                !
 ! R5    R(3,10)                 1.4221         estimate D2E/DX2                !
 ! R6    R(4,7)                  1.4221         estimate D2E/DX2                !
 ! R7    R(5,6)                  0.9537         estimate D2E/DX2                !
 ! R8    R(7,8)                  1.0897         estimate D2E/DX2                !
 ! R9    R(7,9)                  1.0935         estimate D2E/DX2                !
 ! R10   R(7,10)                 1.5381         estimate D2E/DX2                !
 ! R11   R(10,11)                1.0935         estimate D2E/DX2                !
 ! R12   R(10,12)                1.0897         estimate D2E/DX2                !
 ! A1    A(2,1,3)              107.4031         estimate D2E/DX2                !
 ! A2    A(2,1,4)              116.5147         estimate D2E/DX2                !
 ! A3    A(2,1,5)              110.2872         estimate D2E/DX2                !
 ! A4    A(3,1,4)               98.5809         estimate D2E/DX2                !
 ! A5    A(3,1,5)              116.5148         estimate D2E/DX2                !
 ! A6    A(4,1,5)              107.4031         estimate D2E/DX2                !
 ! A7    A(1,3,10)             109.1699         estimate D2E/DX2                !
 ! A8    A(1,4,7)              109.17           estimate D2E/DX2                !
 ! A9    A(1,5,6)              118.3677         estimate D2E/DX2                !
 ! A10   A(4,7,8)              109.1758         estimate D2E/DX2                !
 ! A11   A(4,7,9)              109.3635         estimate D2E/DX2                !
 ! A12   A(4,7,10)             106.9951         estimate D2E/DX2                !
 ! A13   A(8,7,9)              108.7625         estimate D2E/DX2                !
 ! A14   A(8,7,10)             111.7025         estimate D2E/DX2                !
 ! A15   A(9,7,10)             110.7983         estimate D2E/DX2                !
 ! A16   A(3,10,7)             106.9952         estimate D2E/DX2                !
 ! A17   A(3,10,11)            109.3635         estimate D2E/DX2                !
 ! A18   A(3,10,12)            109.1757         estimate D2E/DX2                !
 ! A19   A(7,10,11)            110.7983         estimate D2E/DX2                !
 ! A20   A(7,10,12)            111.7025         estimate D2E/DX2                !
 ! A21   A(11,10,12)           108.7626         estimate D2E/DX2                !
 ! D1    D(2,1,3,10)          -131.2875         estimate D2E/DX2                !
 ! D2    D(4,1,3,10)            -9.926          estimate D2E/DX2                !
 ! D3    D(5,1,3,10)           104.4872         estimate D2E/DX2                !
 ! D4    D(2,1,4,7)            104.4867         estimate D2E/DX2                !
 ! D5    D(3,1,4,7)             -9.9265         estimate D2E/DX2                !
 ! D6    D(5,1,4,7)           -131.2881         estimate D2E/DX2                !
 ! D7    D(2,1,5,6)            -43.0839         estimate D2E/DX2                !
 ! D8    D(3,1,5,6)             79.6528         estimate D2E/DX2                !
 ! D9    D(4,1,5,6)           -171.0105         estimate D2E/DX2                !
 ! D10   D(1,3,10,7)            24.9753         estimate D2E/DX2                !
 ! D11   D(1,3,10,11)          -95.0888         estimate D2E/DX2                !
 ! D12   D(1,3,10,12)          146.018          estimate D2E/DX2                !
 ! D13   D(1,4,7,8)            146.0184         estimate D2E/DX2                !
 ! D14   D(1,4,7,9)            -95.0885         estimate D2E/DX2                !
 ! D15   D(1,4,7,10)            24.9756         estimate D2E/DX2                !
 ! D16   D(4,7,10,3)           -31.9291         estimate D2E/DX2                !
 ! D17   D(4,7,10,11)           87.2118         estimate D2E/DX2                !
 ! D18   D(4,7,10,12)         -151.356          estimate D2E/DX2                !
 ! D19   D(8,7,10,3)          -151.3561         estimate D2E/DX2                !
 ! D20   D(8,7,10,11)          -32.2152         estimate D2E/DX2                !
 ! D21   D(8,7,10,12)           89.217          estimate D2E/DX2                !
 ! D22   D(9,7,10,3)            87.2118         estimate D2E/DX2                !
 ! D23   D(9,7,10,11)         -153.6473         estimate D2E/DX2                !
 ! D24   D(9,7,10,12)          -32.2151         estimate D2E/DX2                !
 --------------------------------------------------------------------------------
 Trust Radius=3.00D-01 FncErr=1.00D-07 GrdErr=1.00D-06 EigMax=2.50D+02 EigMin=1.00D-04
 Number of steps in this run=     67 maximum allowed number of steps=    100.
 GradGradGradGradGradGradGradGradGradGradGradGradGradGradGradGradGradGrad

                          Input orientation:                          
 ---------------------------------------------------------------------
 Center     Atomic      Atomic             Coordinates (Angstroms)
 Number     Number       Type             X           Y           Z
 ---------------------------------------------------------------------
      1         14           0        0.605595    0.000001    0.000000
      2          8           0        1.536233    0.744553   -1.109553
      3          8           0       -0.463335   -0.942354   -0.809537
      4          8           0       -0.463337    0.942350    0.809540
      5          8           0        1.536241   -0.744545    1.109551
      6          1           0        2.298121   -1.232513    0.808054
      7          6           0       -1.770840    0.707147    0.302235
      8          1           0       -2.491617    0.798247    1.114378
      9          1           0       -2.003850    1.455333   -0.460384
     10          6           0       -1.770840   -0.707148   -0.302235
     11          1           0       -2.003853   -1.455333    0.460384
     12          1           0       -2.491614   -0.798246   -1.114381
 ---------------------------------------------------------------------
                    Distance matrix (angstroms):
                    1          2          3          4          5
     1  Si   0.000000
     2  O    1.628359   0.000000
     3  O    1.638900   2.633237   0.000000
     4  O    1.638900   2.778547   2.484657   0.000000
     5  O    1.628359   2.672421   2.778548   2.633236   0.000000
     6  H    2.244256   2.857705   3.213477   3.515065   0.953664
     7  C    2.497768   3.596008   2.380433   1.422056   3.700804
     8  H    3.386998   4.601340   3.293185   2.056116   4.313220
     9  H    3.023102   3.668626   2.871236   2.061320   4.453808
    10  C    2.497769   3.700801   1.422057   2.380431   3.596015
    11  H    3.023106   4.453808   2.061321   2.871234   3.668638
    12  H    3.386997   4.313213   2.056116   3.293183   4.601345
                    6          7          8          9         10
     6  H    0.000000
     7  C    4.535921   0.000000
     8  H    5.211469   1.089677   0.000000
     9  H    5.228805   1.093464   1.774698   0.000000
    10  C    4.250317   1.538055   2.189184   2.180740   0.000000
    11  H    4.321748   2.180740   2.396715   3.052833   1.093464
    12  H    5.179373   2.189183   2.741561   2.396715   1.089677
                   11         12
    11  H    0.000000
    12  H    1.774700   0.000000
 Stoichiometry    C2H5O4Si(1-)
 Framework group  C1[X(C2H5O4Si)]
 Deg. of freedom    30
 Full point group                 C1      NOp   1
 Largest Abelian subgroup         C1      NOp   1
 Largest concise Abelian subgroup C1      NOp   1
                         Standard orientation:                         
 ---------------------------------------------------------------------
 Center     Atomic      Atomic             Coordinates (Angstroms)
 Number     Number       Type             X           Y           Z
 ---------------------------------------------------------------------
      1         14           0        0.640326   -0.023607    0.047236
      2          8           0        1.513865   -0.117923    1.418216
      3          8           0       -0.410973    1.221676    0.220547
      4          8           0       -0.443989   -1.224552   -0.213501
      5          8           0        1.626113    0.032106   -1.247629
      6          1           0        2.398638    0.589681   -1.205323
      7          6           0       -1.753515   -0.736605    0.049736
      8          1           0       -2.457056   -1.213882   -0.631903
      9          1           0       -2.033996   -0.986711    1.076596
     10          6           0       -1.713705    0.787956   -0.149617
     11          1           0       -1.898757    1.047726   -1.195532
     12          1           0       -2.450199    1.295127    0.473079
 ---------------------------------------------------------------------
 Rotational constants (GHZ):           3.8505220           1.9675395           1.9279671
 Standard basis: def2TZVPP (5D, 7F)
 There are   339 symmetry adapted cartesian basis functions of A   symmetry.
 There are   298 symmetry adapted basis functions of A   symmetry.
   298 basis functions,   460 primitive gaussians,   339 cartesian basis functions
    32 alpha electrons       32 beta electrons
       nuclear repulsion energy       417.9250585522 Hartrees.
 NAtoms=   12 NActive=   12 NUniq=   12 SFac= 1.00D+00 NAtFMM=   60 NAOKFM=F Big=F
 Integral buffers will be    131072 words long.
 Raffenetti 2 integral format.
 Two-electron integral symmetry is turned on.
 Nuclear repulsion after empirical dispersion term =      417.9206181170 Hartrees.
 One-electron integrals computed using PRISM.
   1 Symmetry operations used in ECPInt.
 ECPInt:  NShTT=    6105 NPrTT=   17760 LenC2=    5980 LenP2D=   14105.
 LDataN:  DoStor=T MaxTD1= 6 Len=  172
 NBasis=   298 RedAO= T EigKep=  3.44D-04  NBF=   298
 NBsUse=   298 1.00D-06 EigRej= -1.00D+00 NBFU=   298
 ExpMin= 7.01D-02 ExpMax= 4.48D+04 ExpMxC= 1.53D+03 IAcc=3 IRadAn=         5 AccDes= 0.00D+00
 Harris functional with IExCor= 4639 and IRadAn=       5 diagonalized for initial guess.
 HarFok:  IExCor= 4639 AccDes= 0.00D+00 IRadAn=         5 IDoV= 1 UseB2=F ITyADJ=14
 ICtDFT=  3500011 ScaDFX=  1.000000  1.000000  1.000000  1.000000
 FoFCou: FMM=F IPFlag=           0 FMFlag=      100000 FMFlg1=           0
         NFxFlg=           0 DoJE=T BraDBF=F KetDBF=T FulRan=T
         wScrn=  0.000000 ICntrl=       500 IOpCl=  0 I1Cent=   200000004 NGrid=           0
         NMat0=    1 NMatS0=      1 NMatT0=    0 NMatD0=    1 NMtDS0=    0 NMtDT0=    0
 Petite list used in FoFCou.
 Requested convergence on RMS density matrix=1.00D-08 within 128 cycles.
 Requested convergence on MAX density matrix=1.00D-06.
 Requested convergence on             energy=1.00D-06.
 No special actions if energy rises.
 Integral accuracy reduced to 1.0D-05 until final iterations.
 Initial convergence to 1.0D-05 achieved.  Increase integral accuracy.
 SCF Done:  E(RwB97XD) =  -669.854874735     A.U. after   15 cycles
            NFock= 15  Conv=0.63D-08     -V/T= 2.0032

 **********************************************************************

            Population analysis using the SCF Density.

 **********************************************************************

 Orbital symmetries:
       Occupied  (A) (A) (A) (A) (A) (A) (A) (A) (A) (A) (A) (A)
                 (A) (A) (A) (A) (A) (A) (A) (A) (A) (A) (A) (A)
                 (A) (A) (A) (A) (A) (A) (A) (A)
       Virtual   (A) (A) (A) (A) (A) (A) (A) (A) (A) (A) (A) (A)
                 (A) (A) (A) (A) (A) (A) (A) (A) (A) (A) (A) (A)
                 (A) (A) (A) (A) (A) (A) (A) (A) (A) (A) (A) (A)
                 (A) (A) (A) (A) (A) (A) (A) (A) (A) (A) (A) (A)
                 (A) (A) (A) (A) (A) (A) (A) (A) (A) (A) (A) (A)
                 (A) (A) (A) (A) (A) (A) (A) (A) (A) (A) (A) (A)
                 (A) (A) (A) (A) (A) (A) (A) (A) (A) (A) (A) (A)
                 (A) (A) (A) (A) (A) (A) (A) (A) (A) (A) (A) (A)
                 (A) (A) (A) (A) (A) (A) (A) (A) (A) (A) (A) (A)
                 (A) (A) (A) (A) (A) (A) (A) (A) (A) (A) (A) (A)
                 (A) (A) (A) (A) (A) (A) (A) (A) (A) (A) (A) (A)
                 (A) (A) (A) (A) (A) (A) (A) (A) (A) (A) (A) (A)
                 (A) (A) (A) (A) (A) (A) (A) (A) (A) (A) (A) (A)
                 (A) (A) (A) (A) (A) (A) (A) (A) (A) (A) (A) (A)
                 (A) (A) (A) (A) (A) (A) (A) (A) (A) (A) (A) (A)
                 (A) (A) (A) (A) (A) (A) (A) (A) (A) (A) (A) (A)
                 (A) (A) (A) (A) (A) (A) (A) (A) (A) (A) (A) (A)
                 (A) (A) (A) (A) (A) (A) (A) (A) (A) (A) (A) (A)
                 (A) (A) (A) (A) (A) (A) (A) (A) (A) (A) (A) (A)
                 (A) (A) (A) (A) (A) (A) (A) (A) (A) (A) (A) (A)
                 (A) (A) (A) (A) (A) (A) (A) (A) (A) (A) (A) (A)
                 (A) (A) (A) (A) (A) (A) (A) (A) (A) (A) (A) (A)
                 (A) (A)
 The electronic state is 1-A.
 Alpha  occ. eigenvalues --  -66.07042 -19.07333 -19.06866 -19.06460 -18.92121
 Alpha  occ. eigenvalues --  -10.19192 -10.19148  -5.19000  -3.53666  -3.53525
 Alpha  occ. eigenvalues --   -3.53193  -0.98012  -0.92364  -0.92032  -0.72211
 Alpha  occ. eigenvalues --   -0.67958  -0.56294  -0.46919  -0.43956  -0.42791
 Alpha  occ. eigenvalues --   -0.39445  -0.35606  -0.35109  -0.29171  -0.26402
 Alpha  occ. eigenvalues --   -0.25553  -0.25172  -0.22788  -0.20108  -0.15811
 Alpha  occ. eigenvalues --   -0.09891  -0.09182
 Alpha virt. eigenvalues --    0.24753   0.26151   0.28064   0.29046   0.30149
 Alpha virt. eigenvalues --    0.33769   0.35173   0.36922   0.39330   0.40121
 Alpha virt. eigenvalues --    0.40332   0.42345   0.44471   0.47242   0.48815
 Alpha virt. eigenvalues --    0.49962   0.53896   0.54621   0.56991   0.57194
 Alpha virt. eigenvalues --    0.58426   0.59528   0.60812   0.61665   0.62042
 Alpha virt. eigenvalues --    0.65223   0.66787   0.68254   0.68986   0.71394
 Alpha virt. eigenvalues --    0.72777   0.73835   0.74127   0.74888   0.77431
 Alpha virt. eigenvalues --    0.80316   0.80783   0.81948   0.86195   0.88549
 Alpha virt. eigenvalues --    0.90599   0.91620   0.93737   0.94770   0.98694
 Alpha virt. eigenvalues --    0.99742   0.99968   1.01356   1.01679   1.05030
 Alpha virt. eigenvalues --    1.06304   1.08289   1.08841   1.14635   1.15447
 Alpha virt. eigenvalues --    1.17948   1.19778   1.22658   1.23356   1.24935
 Alpha virt. eigenvalues --    1.26713   1.27141   1.30774   1.33246   1.34786
 Alpha virt. eigenvalues --    1.37601   1.38232   1.40045   1.41160   1.43946
 Alpha virt. eigenvalues --    1.44418   1.46737   1.49188   1.52722   1.54895
 Alpha virt. eigenvalues --    1.56075   1.58591   1.60788   1.62913   1.63771
 Alpha virt. eigenvalues --    1.64498   1.70062   1.72006   1.74327   1.74965
 Alpha virt. eigenvalues --    1.77856   1.78658   1.83453   1.85244   1.95294
 Alpha virt. eigenvalues --    1.96827   1.98415   2.00792   2.02149   2.02912
 Alpha virt. eigenvalues --    2.07161   2.11704   2.13213   2.20377   2.20784
 Alpha virt. eigenvalues --    2.22772   2.24854   2.26937   2.31735   2.35994
 Alpha virt. eigenvalues --    2.39812   2.41635   2.42877   2.46046   2.47577
 Alpha virt. eigenvalues --    2.51514   2.51847   2.53820   2.57300   2.59886
 Alpha virt. eigenvalues --    2.63119   2.67101   2.79433   2.81503   2.82952
 Alpha virt. eigenvalues --    2.84390   2.89948   2.94354   2.96077   2.98867
 Alpha virt. eigenvalues --    3.01365   3.04964   3.07330   3.10548   3.13872
 Alpha virt. eigenvalues --    3.16795   3.18629   3.19584   3.21020   3.21669
 Alpha virt. eigenvalues --    3.22600   3.27959   3.31823   3.34730   3.36433
 Alpha virt. eigenvalues --    3.38184   3.38826   3.42370   3.43423   3.49105
 Alpha virt. eigenvalues --    3.49962   3.52215   3.52663   3.53462   3.61642
 Alpha virt. eigenvalues --    3.64432   3.65342   3.67296   3.73374   3.76982
 Alpha virt. eigenvalues --    3.77909   3.84580   3.87116   3.88274   3.89827
 Alpha virt. eigenvalues --    3.93129   3.94439   3.95647   3.97320   4.02657
 Alpha virt. eigenvalues --    4.05475   4.07976   4.13979   4.14975   4.19658
 Alpha virt. eigenvalues --    4.20684   4.26918   4.30415   4.33101   4.34032
 Alpha virt. eigenvalues --    4.34412   4.38152   4.40496   4.45725   4.47343
 Alpha virt. eigenvalues --    4.53478   4.55851   4.60523   4.72103   4.73819
 Alpha virt. eigenvalues --    4.78380   4.78935   4.85148   4.90228   4.96839
 Alpha virt. eigenvalues --    4.98467   4.99262   5.04920   5.10430   5.14466
 Alpha virt. eigenvalues --    5.16488   5.18412   5.20814   5.27777   5.30661
 Alpha virt. eigenvalues --    5.36086   5.38074   5.39866   5.46487   5.48870
 Alpha virt. eigenvalues --    5.51027   5.53536   5.56039   5.56506   5.57690
 Alpha virt. eigenvalues --    5.61848   5.62505   5.64866   5.66923   5.68246
 Alpha virt. eigenvalues --    5.69173   5.72993   5.74371   5.78420   5.80491
 Alpha virt. eigenvalues --    5.83992   5.85197   5.85472   5.91741   5.99026
 Alpha virt. eigenvalues --    6.05522   6.13099   6.16428   6.21305   6.26750
 Alpha virt. eigenvalues --    6.30613   6.37995   6.43851   6.69524   6.71172
 Alpha virt. eigenvalues --    6.73881   6.82730   6.86290   6.88377   6.91486
 Alpha virt. eigenvalues --    6.96002   6.96464   6.97334   7.00273   7.01723
 Alpha virt. eigenvalues --    7.05814   7.07956   7.13730   7.16997   7.22437
 Alpha virt. eigenvalues --    7.28562   7.31496   7.38240   7.47346   7.53877
 Alpha virt. eigenvalues --    7.59561   7.74477   7.86398   8.07249  12.46947
 Alpha virt. eigenvalues --   23.44696  23.57772  43.92379  44.07402  44.27281
 Alpha virt. eigenvalues --   44.42080
          Condensed to atoms (all electrons):
               1          2          3          4          5          6
     1  Si  11.724972   0.790415   0.325051   0.344716   0.399482  -0.035394
     2  O    0.790415   8.197825  -0.050349  -0.038671  -0.059253  -0.001258
     3  O    0.325051  -0.050349   7.987333  -0.017765  -0.028985  -0.000733
     4  O    0.344716  -0.038671  -0.017765   7.966039  -0.022331   0.001554
     5  O    0.399482  -0.059253  -0.028985  -0.022331   7.829931   0.335665
     6  H   -0.035394  -0.001258  -0.000733   0.001554   0.335665   0.531986
     7  C   -0.105030  -0.011103  -0.066291   0.335927  -0.000859  -0.000255
     8  H   -0.001701  -0.000149   0.005218  -0.045047   0.000127   0.000012
     9  H    0.009128   0.001971   0.004827  -0.047120  -0.000170   0.000028
    10  C   -0.099689  -0.007726   0.338359  -0.071030  -0.004282  -0.000204
    11  H   -0.007980  -0.000538  -0.050769   0.008525   0.001513   0.000068
    12  H    0.000893  -0.000346  -0.041313   0.005249  -0.000184   0.000004
               7          8          9         10         11         12
     1  Si  -0.105030  -0.001701   0.009128  -0.099689  -0.007980   0.000893
     2  O   -0.011103  -0.000149   0.001971  -0.007726  -0.000538  -0.000346
     3  O   -0.066291   0.005218   0.004827   0.338359  -0.050769  -0.041313
     4  O    0.335927  -0.045047  -0.047120  -0.071030   0.008525   0.005249
     5  O   -0.000859   0.000127  -0.000170  -0.004282   0.001513  -0.000184
     6  H   -0.000255   0.000012   0.000028  -0.000204   0.000068   0.000004
     7  C    4.766145   0.370191   0.405847   0.295573  -0.054954  -0.017187
     8  H    0.370191   0.744480  -0.079608  -0.009284  -0.019057   0.009856
     9  H    0.405847  -0.079608   0.717706  -0.048963   0.015783  -0.016885
    10  C    0.295573  -0.009284  -0.048963   4.747697   0.411083   0.375721
    11  H   -0.054954  -0.019057   0.015783   0.411083   0.743695  -0.074508
    12  H   -0.017187   0.009856  -0.016885   0.375721  -0.074508   0.730568
 Mulliken charges:
               1
     1  Si   0.655138
     2  O   -0.820817
     3  O   -0.404582
     4  O   -0.420045
     5  O   -0.450653
     6  H    0.168527
     7  C    0.081997
     8  H    0.024961
     9  H    0.037457
    10  C    0.072746
    11  H    0.027140
    12  H    0.028132
 Sum of Mulliken charges =  -1.00000
 Mulliken charges with hydrogens summed into heavy atoms:
               1
     1  Si   0.655138
     2  O   -0.820817
     3  O   -0.404582
     4  O   -0.420045
     5  O   -0.282126
     7  C    0.144414
    10  C    0.128018
 Electronic spatial extent (au):  <R**2>=            770.4451
 Charge=             -1.0000 electrons
 Dipole moment (field-independent basis, Debye):
    X=             -5.4558    Y=              1.2164    Z=             -4.1705  Tot=              6.9741
 Quadrupole moment (field-independent basis, Debye-Ang):
   XX=            -53.8928   YY=            -54.5822   ZZ=            -60.7320
   XY=              3.2639   XZ=             -8.4423   YZ=             -1.6910
 Traceless Quadrupole moment (field-independent basis, Debye-Ang):
   XX=              2.5095   YY=              1.8202   ZZ=             -4.3297
   XY=              3.2639   XZ=             -8.4423   YZ=             -1.6910
 Octapole moment (field-independent basis, Debye-Ang**2):
  XXX=             -0.9514  YYY=              0.7318  ZZZ=            -12.6555  XYY=              4.7048
  XXY=              8.1030  XXZ=            -17.5158  XZZ=            -16.1087  YZZ=              2.4082
  YYZ=             -2.4199  XYZ=             -1.7782
 Hexadecapole moment (field-independent basis, Debye-Ang**3):
 XXXX=           -572.3807 YYYY=           -233.4150 ZZZZ=           -244.3881 XXXY=             21.6229
 XXXZ=            -48.4476 YYYX=              2.9775 YYYZ=             -1.1452 ZZZX=            -23.1831
 ZZZY=              0.0189 XXYY=           -128.2605 XXZZ=           -151.8807 YYZZ=            -72.8900
 XXYZ=             -4.1172 YYXZ=             -6.3317 ZZXY=              6.2639
 N-N= 4.179206181170D+02 E-N=-2.435413397458D+03  KE= 6.677476996294D+02
   1 Symmetry operations used in ECPInt.
 ECPInt:  NShTT=    6105 NPrTT=   17760 LenC2=    5980 LenP2D=   14105.
 LDataN:  DoStor=T MaxTD1= 7 Len=  274
 Calling FoFJK, ICntrl=      2127 FMM=F ISym2X=0 I1Cent= 0 IOpClX= 0 NMat=1 NMatS=1 NMatT=0.
 ***** Axes restored to original set *****
 -------------------------------------------------------------------
 Center     Atomic                   Forces (Hartrees/Bohr)
 Number     Number              X              Y              Z
 -------------------------------------------------------------------
      1       14           0.088023800    0.060546978   -0.087586875
      2        8          -0.027587643   -0.023630120    0.040051747
      3        8          -0.039848490   -0.020055708    0.006307109
      4        8          -0.031892008    0.000895519    0.015166199
      5        8          -0.001477597   -0.022741961    0.030409582
      6        1          -0.003687815    0.007515659   -0.005345726
      7        6           0.013213828    0.000719528    0.005108934
      8        1          -0.003448908    0.000152291    0.001515969
      9        1          -0.000406167    0.000563809   -0.001903663
     10        6           0.013324645   -0.002651592   -0.005449082
     11        1          -0.003135877   -0.001124424    0.003032399
     12        1          -0.003077768   -0.000189980   -0.001306594
 -------------------------------------------------------------------
 Cartesian Forces:  Max     0.088023800 RMS     0.027535396

 GradGradGradGradGradGradGradGradGradGradGradGradGradGradGradGradGradGrad
 Berny optimization.
 FormGI is forming the generalized inverse of G from B-inverse, IUseBI=4.
 Internal  Forces:  Max     0.053861436 RMS     0.011347749
 Search for a local minimum.
 Step number   1 out of a maximum of   67
 All quantities printed in internal units (Hartrees-Bohrs-Radians)
 Mixed Optimization -- RFO/linear search
 Second derivative matrix not updated -- first step.
 ITU=  0
     Eigenvalues ---    0.00797   0.02930   0.03964   0.04821   0.04940
     Eigenvalues ---    0.05721   0.06096   0.10424   0.10960   0.11233
     Eigenvalues ---    0.11284   0.12884   0.13885   0.15568   0.16000
     Eigenvalues ---    0.17471   0.22143   0.22613   0.27843   0.34415
     Eigenvalues ---    0.34415   0.34850   0.34850   0.39530   0.40391
     Eigenvalues ---    0.42890   0.43856   0.46103   0.46103   0.56859
 RFO step:  Lambda=-2.44390257D-02 EMin= 7.96657518D-03
 Linear search not attempted -- first point.
 Iteration  1 RMS(Cart)=  0.03907735 RMS(Int)=  0.00317006
 Iteration  2 RMS(Cart)=  0.00281845 RMS(Int)=  0.00191025
 Iteration  3 RMS(Cart)=  0.00001275 RMS(Int)=  0.00191022
 Iteration  4 RMS(Cart)=  0.00000007 RMS(Int)=  0.00191022
 Variable       Old X    -DE/DX   Delta X   Delta X   Delta X     New X
                                 (Linear)    (Quad)   (Total)
    R1        3.07715  -0.05386   0.00000  -0.11095  -0.11095   2.96621
    R2        3.09707   0.03117   0.00000   0.07423   0.07555   3.17262
    R3        3.09707   0.02530   0.00000   0.05912   0.06039   3.15746
    R4        3.07715   0.02109   0.00000   0.04343   0.04343   3.12059
    R5        2.68730  -0.00921   0.00000  -0.02178  -0.02243   2.66487
    R6        2.68730  -0.00818   0.00000  -0.02330  -0.02404   2.66326
    R7        1.80216  -0.00510   0.00000  -0.00860  -0.00860   1.79356
    R8        2.05919   0.00342   0.00000   0.00918   0.00918   2.06837
    R9        2.06635   0.00180   0.00000   0.00488   0.00488   2.07123
   R10        2.90650   0.00195   0.00000  -0.00606  -0.00761   2.89889
   R11        2.06635   0.00355   0.00000   0.00964   0.00964   2.07599
   R12        2.05919   0.00302   0.00000   0.00811   0.00811   2.06730
    A1        1.87454   0.01579   0.00000   0.09466   0.09490   1.96943
    A2        2.03357   0.00848   0.00000   0.05242   0.05255   2.08611
    A3        1.92488   0.00689   0.00000   0.05181   0.05364   1.97852
    A4        1.72056  -0.01459   0.00000  -0.05798  -0.06104   1.65952
    A5        2.03357  -0.01220   0.00000  -0.08534  -0.09044   1.94312
    A6        1.87454  -0.00679   0.00000  -0.06926  -0.07572   1.79882
    A7        1.90537   0.00417   0.00000   0.03151   0.03324   1.93861
    A8        1.90538   0.00361   0.00000   0.02101   0.02268   1.92805
    A9        2.06591  -0.01386   0.00000  -0.07513  -0.07513   1.99078
   A10        1.90548  -0.00055   0.00000   0.00695   0.00771   1.91319
   A11        1.90875  -0.00031   0.00000   0.00489   0.00496   1.91371
   A12        1.86742   0.00335   0.00000   0.00074  -0.00058   1.86684
   A13        1.89826   0.00047   0.00000  -0.00099  -0.00116   1.89710
   A14        1.94958  -0.00397   0.00000  -0.01214  -0.01194   1.93764
   A15        1.93380   0.00106   0.00000   0.00104   0.00141   1.93521
   A16        1.86742   0.00356   0.00000  -0.00153  -0.00303   1.86439
   A17        1.90875   0.00157   0.00000   0.01873   0.01885   1.92760
   A18        1.90548  -0.00146   0.00000   0.00627   0.00711   1.91259
   A19        1.93379  -0.00487   0.00000  -0.01592  -0.01517   1.91862
   A20        1.94958   0.00115   0.00000  -0.00018  -0.00028   1.94929
   A21        1.89827   0.00013   0.00000  -0.00635  -0.00664   1.89162
    D1       -2.29140  -0.00038   0.00000  -0.01122  -0.01206  -2.30346
    D2       -0.17324   0.00815   0.00000   0.05520   0.05235  -0.12090
    D3        1.82365  -0.01366   0.00000  -0.09603  -0.09164   1.73201
    D4        1.82364   0.00452   0.00000   0.03166   0.03258   1.85622
    D5       -0.17325  -0.00852   0.00000  -0.06527  -0.06289  -0.23614
    D6       -2.29141   0.01423   0.00000   0.08160   0.07778  -2.21363
    D7       -0.75196  -0.00044   0.00000   0.01253   0.01260  -0.73936
    D8        1.39020   0.01735   0.00000   0.11864   0.11331   1.50351
    D9       -2.98470  -0.01107   0.00000  -0.04004  -0.03477  -3.01946
   D10        0.43590  -0.00557   0.00000  -0.03055  -0.02963   0.40627
   D11       -1.65961  -0.00269   0.00000  -0.02103  -0.02013  -1.67974
   D12        2.54850  -0.00292   0.00000  -0.02812  -0.02774   2.52076
   D13        2.54850   0.00300   0.00000   0.04388   0.04395   2.59245
   D14       -1.65961   0.00306   0.00000   0.04969   0.05014  -1.60947
   D15        0.43591   0.00611   0.00000   0.05409   0.05427   0.49017
   D16       -0.55727  -0.00167   0.00000  -0.01041  -0.00977  -0.56704
   D17        1.52213  -0.00035   0.00000   0.00235   0.00263   1.52476
   D18       -2.64166  -0.00279   0.00000  -0.01700  -0.01638  -2.65804
   D19       -2.64166  -0.00081   0.00000  -0.01237  -0.01197  -2.65364
   D20       -0.56226   0.00050   0.00000   0.00040   0.00043  -0.56183
   D21        1.55713  -0.00193   0.00000  -0.01895  -0.01858   1.53855
   D22        1.52213   0.00058   0.00000  -0.00346  -0.00333   1.51880
   D23       -2.68165   0.00189   0.00000   0.00930   0.00907  -2.67258
   D24       -0.56226  -0.00054   0.00000  -0.01005  -0.00994  -0.57220
         Item               Value     Threshold  Converged?
 Maximum Force            0.053861     0.000450     NO 
 RMS     Force            0.011348     0.000300     NO 
 Maximum Displacement     0.124925     0.001800     NO 
 RMS     Displacement     0.040142     0.001200     NO 
 Predicted change in Energy=-1.318176D-02
 GradGradGradGradGradGradGradGradGradGradGradGradGradGradGradGradGradGrad

                          Input orientation:                          
 ---------------------------------------------------------------------
 Center     Atomic      Atomic             Coordinates (Angstroms)
 Number     Number       Type             X           Y           Z
 ---------------------------------------------------------------------
      1         14           0        0.659459    0.050015   -0.066108
      2          8           0        1.599697    0.779295   -1.089778
      3          8           0       -0.472581   -0.940243   -0.812102
      4          8           0       -0.464401    0.936510    0.795769
      5          8           0        1.480969   -0.760457    1.115074
      6          1           0        2.236711   -1.240972    0.800787
      7          6           0       -1.762961    0.698977    0.302265
      8          1           0       -2.487258    0.782100    1.118655
      9          1           0       -2.008622    1.444568   -0.462630
     10          6           0       -1.764026   -0.715112   -0.292372
     11          1           0       -1.996210   -1.450252    0.490256
     12          1           0       -2.503871   -0.816938   -1.091763
 ---------------------------------------------------------------------
                    Distance matrix (angstroms):
                    1          2          3          4          5
     1  Si   0.000000
     2  O    1.569648   0.000000
     3  O    1.678879   2.707073   0.000000
     4  O    1.670858   2.800090   2.471339   0.000000
     5  O    1.651343   2.691896   2.750034   2.601177   0.000000
     6  H    2.214921   2.839277   3.167350   3.469504   0.949113
     7  C    2.534753   3.640289   2.365150   1.409335   3.648793
     8  H    3.441139   4.645469   3.279209   2.054276   4.257502
     9  H    3.036555   3.722347   2.858124   2.055799   4.419110
    10  C    2.551449   3.766130   1.410189   2.366628   3.537365
    11  H    3.100472   4.516407   2.068258   2.852439   3.599582
    12  H    3.436603   4.403093   2.054155   3.285847   4.555466
                    6          7          8          9         10
     6  H    0.000000
     7  C    4.473176   0.000000
     8  H    5.148761   1.094535   0.000000
     9  H    5.179884   1.096048   1.780006   0.000000
    10  C    4.180600   1.534028   2.180758   2.180145   0.000000
    11  H    4.249452   2.170007   2.370529   3.047644   1.098567
    12  H    5.121979   2.188666   2.728213   2.399060   1.093968
                   11         12
    11  H    0.000000
    12  H    1.778087   0.000000
 Stoichiometry    C2H5O4Si(1-)
 Framework group  C1[X(C2H5O4Si)]
 Deg. of freedom    30
 Full point group                 C1      NOp   1
 Largest Abelian subgroup         C1      NOp   1
 Largest concise Abelian subgroup C1      NOp   1
                         Standard orientation:                         
 ---------------------------------------------------------------------
 Center     Atomic      Atomic             Coordinates (Angstroms)
 Number     Number       Type             X           Y           Z
 ---------------------------------------------------------------------
      1         14           0        0.682694   -0.055830    0.080522
      2          8           0        1.607987   -0.619171    1.216425
      3          8           0       -0.439046    1.057922    0.646108
      4          8           0       -0.449254   -1.057283   -0.631905
      5          8           0        1.520818    0.539107   -1.211969
      6          1           0        2.281642    1.054951   -0.975606
      7          6           0       -1.746704   -0.725293   -0.193005
      8          1           0       -2.468257   -0.932006   -0.989647
      9          1           0       -2.006199   -1.331974    0.682163
     10          6           0       -1.731033    0.767128    0.161504
     11          1           0       -1.949393    1.366728   -0.732727
     12          1           0       -2.473129    1.008306    0.928245
 ---------------------------------------------------------------------
 Rotational constants (GHZ):           3.8395801           1.9450813           1.9242431
 Standard basis: def2TZVPP (5D, 7F)
 There are   339 symmetry adapted cartesian basis functions of A   symmetry.
 There are   298 symmetry adapted basis functions of A   symmetry.
   298 basis functions,   460 primitive gaussians,   339 cartesian basis functions
    32 alpha electrons       32 beta electrons
       nuclear repulsion energy       416.8908234621 Hartrees.
 NAtoms=   12 NActive=   12 NUniq=   12 SFac= 1.00D+00 NAtFMM=   60 NAOKFM=F Big=F
 Integral buffers will be    131072 words long.
 Raffenetti 2 integral format.
 Two-electron integral symmetry is turned on.
 Nuclear repulsion after empirical dispersion term =      416.8863518836 Hartrees.
 One-electron integrals computed using PRISM.
   1 Symmetry operations used in ECPInt.
 ECPInt:  NShTT=    6105 NPrTT=   17760 LenC2=    5982 LenP2D=   14097.
 LDataN:  DoStor=T MaxTD1= 6 Len=  172
 NBasis=   298 RedAO= T EigKep=  3.46D-04  NBF=   298
 NBsUse=   298 1.00D-06 EigRej= -1.00D+00 NBFU=   298
 Initial guess from the checkpoint file:  "OnceDeprotonatedBIQLEG.chk"
 B after Tr=     0.000000    0.000000    0.000000
         Rot=    0.982288   -0.186601   -0.015379   -0.007360 Ang= -21.60 deg.
 ExpMin= 7.01D-02 ExpMax= 4.48D+04 ExpMxC= 1.53D+03 IAcc=3 IRadAn=         5 AccDes= 0.00D+00
 Harris functional with IExCor= 4639 and IRadAn=       5 diagonalized for initial guess.
 HarFok:  IExCor= 4639 AccDes= 0.00D+00 IRadAn=         5 IDoV= 1 UseB2=F ITyADJ=14
 ICtDFT=  3500011 ScaDFX=  1.000000  1.000000  1.000000  1.000000
 FoFCou: FMM=F IPFlag=           0 FMFlag=      100000 FMFlg1=           0
         NFxFlg=           0 DoJE=T BraDBF=F KetDBF=T FulRan=T
         wScrn=  0.000000 ICntrl=       500 IOpCl=  0 I1Cent=   200000004 NGrid=           0
         NMat0=    1 NMatS0=      1 NMatT0=    0 NMatD0=    1 NMtDS0=    0 NMtDT0=    0
 Petite list used in FoFCou.
 Requested convergence on RMS density matrix=1.00D-08 within 128 cycles.
 Requested convergence on MAX density matrix=1.00D-06.
 Requested convergence on             energy=1.00D-06.
 No special actions if energy rises.
 Integral accuracy reduced to 1.0D-05 until final iterations.
 Initial convergence to 1.0D-05 achieved.  Increase integral accuracy.
 SCF Done:  E(RwB97XD) =  -669.872293034     A.U. after   13 cycles
            NFock= 13  Conv=0.69D-08     -V/T= 2.0032
   1 Symmetry operations used in ECPInt.
 ECPInt:  NShTT=    6105 NPrTT=   17760 LenC2=    5982 LenP2D=   14097.
 LDataN:  DoStor=T MaxTD1= 7 Len=  274
 Calling FoFJK, ICntrl=      2127 FMM=F ISym2X=0 I1Cent= 0 IOpClX= 0 NMat=1 NMatS=1 NMatT=0.
 ***** Axes restored to original set *****
 -------------------------------------------------------------------
 Center     Atomic                   Forces (Hartrees/Bohr)
 Number     Number              X              Y              Z
 -------------------------------------------------------------------
      1       14           0.032820318    0.027156233   -0.036899487
      2        8          -0.011607108   -0.010679809    0.014949111
      3        8          -0.017691218   -0.008416971    0.003217777
      4        8          -0.015157226    0.001505676    0.006364826
      5        8          -0.005325128   -0.011835549    0.015974406
      6        1           0.003512897    0.002530313   -0.003947810
      7        6           0.008186140    0.001481048    0.005101830
      8        1          -0.001405283    0.001066913   -0.000081826
      9        1          -0.001356535    0.000077402   -0.001489022
     10        6           0.010146666   -0.002044489   -0.003689371
     11        1          -0.000517266   -0.000694691    0.000544488
     12        1          -0.001606258   -0.000146076   -0.000044921
 -------------------------------------------------------------------
 Cartesian Forces:  Max     0.036899487 RMS     0.011785025

 GradGradGradGradGradGradGradGradGradGradGradGradGradGradGradGradGradGrad
 Berny optimization.
 Using GEDIIS/GDIIS optimizer.
 FormGI is forming the generalized inverse of G from B-inverse, IUseBI=4.
 Internal  Forces:  Max     0.021664935 RMS     0.004873075
 Search for a local minimum.
 Step number   2 out of a maximum of   67
 All quantities printed in internal units (Hartrees-Bohrs-Radians)
 Mixed Optimization -- RFO/linear search
 Update second derivatives using D2CorX and points    1    2
 DE= -1.74D-02 DEPred=-1.32D-02 R= 1.32D+00
 TightC=F SS=  1.41D+00  RLast= 3.35D-01 DXNew= 5.0454D-01 1.0064D+00
 Trust test= 1.32D+00 RLast= 3.35D-01 DXMaxT set to 5.05D-01
 ITU=  1  0
 Use linear search instead of GDIIS.
     Eigenvalues ---    0.00805   0.02924   0.03902   0.04833   0.04949
     Eigenvalues ---    0.05799   0.06135   0.09855   0.10416   0.11147
     Eigenvalues ---    0.11225   0.12576   0.13229   0.15103   0.15880
     Eigenvalues ---    0.16536   0.22018   0.22561   0.27890   0.34012
     Eigenvalues ---    0.34426   0.34649   0.34851   0.35183   0.39500
     Eigenvalues ---    0.42632   0.43810   0.43957   0.46318   0.57239
 RFO step:  Lambda=-1.31171154D-03 EMin= 8.04641101D-03
 Quartic linear search produced a step of  0.59333.
 Iteration  1 RMS(Cart)=  0.03705108 RMS(Int)=  0.00249713
 Iteration  2 RMS(Cart)=  0.00153023 RMS(Int)=  0.00176504
 Iteration  3 RMS(Cart)=  0.00000360 RMS(Int)=  0.00176504
 Iteration  4 RMS(Cart)=  0.00000002 RMS(Int)=  0.00176504
 Variable       Old X    -DE/DX   Delta X   Delta X   Delta X     New X
                                 (Linear)    (Quad)   (Total)
    R1        2.96621  -0.02166  -0.06583  -0.00881  -0.07464   2.89156
    R2        3.17262   0.01124   0.04482   0.00022   0.04627   3.21889
    R3        3.15746   0.01134   0.03583   0.00912   0.04609   3.20355
    R4        3.12059   0.01227   0.02577   0.01654   0.04231   3.16290
    R5        2.66487  -0.00751  -0.01331  -0.01692  -0.03080   2.63407
    R6        2.66326  -0.00598  -0.01426  -0.01106  -0.02605   2.63721
    R7        1.79356   0.00282  -0.00510   0.01293   0.00783   1.80139
    R8        2.06837   0.00095   0.00545  -0.00130   0.00415   2.07252
    R9        2.07123   0.00140   0.00290   0.00346   0.00635   2.07758
   R10        2.89889   0.00285  -0.00452   0.01209   0.00615   2.90504
   R11        2.07599   0.00096   0.00572  -0.00148   0.00424   2.08023
   R12        2.06730   0.00113   0.00481   0.00020   0.00501   2.07231
    A1        1.96943   0.00560   0.05630  -0.00719   0.04910   2.01854
    A2        2.08611   0.00350   0.03118   0.00445   0.03532   2.12144
    A3        1.97852   0.00359   0.03183   0.00299   0.03647   2.01499
    A4        1.65952  -0.00439  -0.03622   0.01284  -0.02605   1.63347
    A5        1.94312  -0.00761  -0.05366  -0.02187  -0.07954   1.86359
    A6        1.79882  -0.00315  -0.04493   0.00907  -0.04158   1.75724
    A7        1.93861   0.00016   0.01972  -0.01750   0.00400   1.94261
    A8        1.92805   0.00040   0.01346  -0.00930   0.00583   1.93389
    A9        1.99078  -0.00681  -0.04457  -0.01463  -0.05921   1.93157
   A10        1.91319  -0.00058   0.00458   0.00041   0.00559   1.91878
   A11        1.91371   0.00134   0.00294   0.01547   0.01849   1.93220
   A12        1.86684   0.00056  -0.00034  -0.00224  -0.00364   1.86320
   A13        1.89710  -0.00037  -0.00069  -0.01135  -0.01225   1.88485
   A14        1.93764  -0.00032  -0.00708   0.00902   0.00218   1.93982
   A15        1.93521  -0.00059   0.00084  -0.01072  -0.00968   1.92553
   A16        1.86439   0.00302  -0.00180   0.01108   0.00791   1.87230
   A17        1.92760  -0.00030   0.01118  -0.01497  -0.00363   1.92397
   A18        1.91259  -0.00099   0.00422   0.00386   0.00879   1.92138
   A19        1.91862  -0.00152  -0.00900   0.00574  -0.00250   1.91613
   A20        1.94929  -0.00021  -0.00017  -0.00270  -0.00309   1.94621
   A21        1.89162   0.00000  -0.00394  -0.00321  -0.00739   1.88424
    D1       -2.30346  -0.00128  -0.00716  -0.03306  -0.04122  -2.34468
    D2       -0.12090   0.00250   0.03106  -0.02340   0.00526  -0.11564
    D3        1.73201  -0.00441  -0.05437  -0.01244  -0.06230   1.66970
    D4        1.85622   0.00234   0.01933   0.01868   0.03893   1.89515
    D5       -0.23614  -0.00294  -0.03732   0.01655  -0.01893  -0.25508
    D6       -2.21363   0.00691   0.04615   0.03388   0.07663  -2.13700
    D7       -0.73936   0.00199   0.00747   0.05110   0.05873  -0.68063
    D8        1.50351   0.00617   0.06723   0.02485   0.08667   1.59019
    D9       -3.01946  -0.00250  -0.02063   0.03640   0.02101  -2.99845
   D10        0.40627  -0.00189  -0.01758   0.02273   0.00615   0.41242
   D11       -1.67974  -0.00170  -0.01194   0.01753   0.00645  -1.67329
   D12        2.52076  -0.00090  -0.01646   0.02830   0.01231   2.53307
   D13        2.59245   0.00128   0.02607  -0.00005   0.02596   2.61840
   D14       -1.60947   0.00129   0.02975  -0.00428   0.02577  -1.58370
   D15        0.49017   0.00166   0.03220  -0.00979   0.02235   0.51252
   D16       -0.56704  -0.00127  -0.00580  -0.01599  -0.02130  -0.58834
   D17        1.52476  -0.00069   0.00156  -0.02420  -0.02238   1.50238
   D18       -2.65804  -0.00184  -0.00972  -0.02614  -0.03530  -2.69334
   D19       -2.65364  -0.00073  -0.00710  -0.02023  -0.02708  -2.68071
   D20       -0.56183  -0.00015   0.00026  -0.02845  -0.02816  -0.58999
   D21        1.53855  -0.00130  -0.01103  -0.03039  -0.04108   1.49747
   D22        1.51880   0.00036  -0.00198  -0.00469  -0.00664   1.51216
   D23       -2.67258   0.00094   0.00538  -0.01291  -0.00772  -2.68030
   D24       -0.57220  -0.00021  -0.00590  -0.01484  -0.02064  -0.59284
         Item               Value     Threshold  Converged?
 Maximum Force            0.021665     0.000450     NO 
 RMS     Force            0.004873     0.000300     NO 
 Maximum Displacement     0.127057     0.001800     NO 
 RMS     Displacement     0.037316     0.001200     NO 
 Predicted change in Energy=-4.180094D-03
 GradGradGradGradGradGradGradGradGradGradGradGradGradGradGradGradGradGrad

                          Input orientation:                          
 ---------------------------------------------------------------------
 Center     Atomic      Atomic             Coordinates (Angstroms)
 Number     Number       Type             X           Y           Z
 ---------------------------------------------------------------------
      1         14           0        0.684701    0.089282   -0.102622
      2          8           0        1.641998    0.793769   -1.066280
      3          8           0       -0.474367   -0.927586   -0.826489
      4          8           0       -0.471863    0.951827    0.787457
      5          8           0        1.413733   -0.798829    1.114403
      6          1           0        2.184623   -1.252256    0.784511
      7          6           0       -1.756796    0.702696    0.303264
      8          1           0       -2.486139    0.785762    1.118112
      9          1           0       -2.028677    1.433582   -0.471712
     10          6           0       -1.741245   -0.717763   -0.284346
     11          1           0       -1.941512   -1.452179    0.510831
     12          1           0       -2.507552   -0.840812   -1.059076
 ---------------------------------------------------------------------
                    Distance matrix (angstroms):
                    1          2          3          4          5
     1  Si   0.000000
     2  O    1.530149   0.000000
     3  O    1.703363   2.738534   0.000000
     4  O    1.695247   2.815978   2.477301   0.000000
     5  O    1.673733   2.709955   2.710824   2.593677   0.000000
     6  H    2.199204   2.811777   3.125854   3.451797   0.953255
     7  C    2.549888   3.665481   2.361945   1.395551   3.600664
     8  H    3.468357   4.670455   3.280893   2.047979   4.209507
     9  H    3.050538   3.773159   2.849010   2.059433   4.398819
    10  C    2.563115   3.787148   1.393888   2.355339   3.452095
    11  H    3.106352   4.513659   2.053323   2.831190   3.471144
    12  H    3.459821   4.459897   2.048284   3.281352   4.483554
                    6          7          8          9         10
     6  H    0.000000
     7  C    4.425858   0.000000
     8  H    5.106939   1.096730   0.000000
     9  H    5.152059   1.099409   1.776649   0.000000
    10  C    4.103727   1.537280   2.186856   2.178533   0.000000
    11  H    4.140032   2.172715   2.381972   3.049689   1.100809
    12  H    5.058123   2.191351   2.717784   2.397329   1.096620
                   11         12
    11  H    0.000000
    12  H    1.777295   0.000000
 Stoichiometry    C2H5O4Si(1-)
 Framework group  C1[X(C2H5O4Si)]
 Deg. of freedom    30
 Full point group                 C1      NOp   1
 Largest Abelian subgroup         C1      NOp   1
 Largest concise Abelian subgroup C1      NOp   1
                         Standard orientation:                         
 ---------------------------------------------------------------------
 Center     Atomic      Atomic             Coordinates (Angstroms)
 Number     Number       Type             X           Y           Z
 ---------------------------------------------------------------------
      1         14           0        0.706021   -0.094080    0.087661
      2          8           0        1.670812   -0.810926    1.034586
      3          8           0       -0.438613    0.923773    0.832801
      4          8           0       -0.465899   -0.943646   -0.794780
      5          8           0        1.425412    0.798977   -1.131481
      6          1           0        2.202711    1.245705   -0.807543
      7          6           0       -1.743543   -0.691035   -0.293404
      8          1           0       -2.483023   -0.764063   -1.100036
      9          1           0       -2.010225   -1.426121    0.479402
     10          6           0       -1.713031    0.724935    0.304364
     11          1           0       -1.918677    1.466299   -0.482954
     12          1           0       -2.469327    0.846470    1.089107
 ---------------------------------------------------------------------
 Rotational constants (GHZ):           3.8113868           1.9541881           1.9278464
 Standard basis: def2TZVPP (5D, 7F)
 There are   339 symmetry adapted cartesian basis functions of A   symmetry.
 There are   298 symmetry adapted basis functions of A   symmetry.
   298 basis functions,   460 primitive gaussians,   339 cartesian basis functions
    32 alpha electrons       32 beta electrons
       nuclear repulsion energy       416.7575822724 Hartrees.
 NAtoms=   12 NActive=   12 NUniq=   12 SFac= 1.00D+00 NAtFMM=   60 NAOKFM=F Big=F
 Integral buffers will be    131072 words long.
 Raffenetti 2 integral format.
 Two-electron integral symmetry is turned on.
 Nuclear repulsion after empirical dispersion term =      416.7530741502 Hartrees.
 One-electron integrals computed using PRISM.
   1 Symmetry operations used in ECPInt.
 ECPInt:  NShTT=    6105 NPrTT=   17760 LenC2=    5984 LenP2D=   14094.
 LDataN:  DoStor=T MaxTD1= 6 Len=  172
 NBasis=   298 RedAO= T EigKep=  3.50D-04  NBF=   298
 NBsUse=   298 1.00D-06 EigRej= -1.00D+00 NBFU=   298
 Initial guess from the checkpoint file:  "OnceDeprotonatedBIQLEG.chk"
 B after Tr=    -0.000000    0.000000   -0.000000
         Rot=    0.995870   -0.089904   -0.011671   -0.004888 Ang= -10.42 deg.
 ExpMin= 7.01D-02 ExpMax= 4.48D+04 ExpMxC= 1.53D+03 IAcc=3 IRadAn=         5 AccDes= 0.00D+00
 Harris functional with IExCor= 4639 and IRadAn=       5 diagonalized for initial guess.
 HarFok:  IExCor= 4639 AccDes= 0.00D+00 IRadAn=         5 IDoV= 1 UseB2=F ITyADJ=14
 ICtDFT=  3500011 ScaDFX=  1.000000  1.000000  1.000000  1.000000
 FoFCou: FMM=F IPFlag=           0 FMFlag=      100000 FMFlg1=           0
         NFxFlg=           0 DoJE=T BraDBF=F KetDBF=T FulRan=T
         wScrn=  0.000000 ICntrl=       500 IOpCl=  0 I1Cent=   200000004 NGrid=           0
         NMat0=    1 NMatS0=      1 NMatT0=    0 NMatD0=    1 NMtDS0=    0 NMtDT0=    0
 Petite list used in FoFCou.
 Requested convergence on RMS density matrix=1.00D-08 within 128 cycles.
 Requested convergence on MAX density matrix=1.00D-06.
 Requested convergence on             energy=1.00D-06.
 No special actions if energy rises.
 Integral accuracy reduced to 1.0D-05 until final iterations.
 Initial convergence to 1.0D-05 achieved.  Increase integral accuracy.
 SCF Done:  E(RwB97XD) =  -669.876153572     A.U. after   13 cycles
            NFock= 13  Conv=0.61D-08     -V/T= 2.0031
   1 Symmetry operations used in ECPInt.
 ECPInt:  NShTT=    6105 NPrTT=   17760 LenC2=    5984 LenP2D=   14094.
 LDataN:  DoStor=T MaxTD1= 7 Len=  274
 Calling FoFJK, ICntrl=      2127 FMM=F ISym2X=0 I1Cent= 0 IOpClX= 0 NMat=1 NMatS=1 NMatT=0.
 ***** Axes restored to original set *****
 -------------------------------------------------------------------
 Center     Atomic                   Forces (Hartrees/Bohr)
 Number     Number              X              Y              Z
 -------------------------------------------------------------------
      1       14          -0.005079813   -0.002272371    0.002878903
      2        8           0.007172238    0.004325852   -0.005998372
      3        8          -0.001502067    0.000500572   -0.001598094
      4        8          -0.000381842    0.002523818    0.000230415
      5        8          -0.001208379   -0.005185221    0.003308247
      6        1           0.001912072    0.002492972   -0.000400765
      7        6           0.000869856   -0.001230776    0.001930868
      8        1          -0.000665480    0.000274564   -0.000444943
      9        1          -0.000206457    0.000015869   -0.000794184
     10        6           0.000969761   -0.001759751   -0.000083893
     11        1          -0.000863215    0.000200408    0.000655718
     12        1          -0.001016674    0.000114066    0.000316100
 -------------------------------------------------------------------
 Cartesian Forces:  Max     0.007172238 RMS     0.002472843

 GradGradGradGradGradGradGradGradGradGradGradGradGradGradGradGradGradGrad
 Berny optimization.
 Using GEDIIS/GDIIS optimizer.
 FormGI is forming the generalized inverse of G from B-inverse, IUseBI=4.
 Internal  Forces:  Max     0.010256693 RMS     0.001631944
 Search for a local minimum.
 Step number   3 out of a maximum of   67
 All quantities printed in internal units (Hartrees-Bohrs-Radians)
 Mixed Optimization -- RFO/linear search
 Update second derivatives using D2CorX and points    1    2    3
 DE= -3.86D-03 DEPred=-4.18D-03 R= 9.24D-01
 TightC=F SS=  1.41D+00  RLast= 2.54D-01 DXNew= 8.4853D-01 7.6107D-01
 Trust test= 9.24D-01 RLast= 2.54D-01 DXMaxT set to 7.61D-01
 ITU=  1  1  0
 Use linear search instead of GDIIS.
     Eigenvalues ---    0.00806   0.02856   0.03680   0.04826   0.04898
     Eigenvalues ---    0.05851   0.06141   0.10227   0.10483   0.11111
     Eigenvalues ---    0.11238   0.12398   0.13735   0.14889   0.15993
     Eigenvalues ---    0.16407   0.21884   0.22440   0.27853   0.34035
     Eigenvalues ---    0.34426   0.34731   0.34853   0.35724   0.39486
     Eigenvalues ---    0.42570   0.43815   0.45028   0.51273   0.57298
 RFO step:  Lambda=-7.02252851D-04 EMin= 8.05595974D-03
 Quartic linear search produced a step of  0.03168.
 Iteration  1 RMS(Cart)=  0.01449600 RMS(Int)=  0.00032077
 Iteration  2 RMS(Cart)=  0.00028445 RMS(Int)=  0.00003504
 Iteration  3 RMS(Cart)=  0.00000027 RMS(Int)=  0.00003504
 Variable       Old X    -DE/DX   Delta X   Delta X   Delta X     New X
                                 (Linear)    (Quad)   (Total)
    R1        2.89156   0.01026  -0.00236   0.01776   0.01539   2.90696
    R2        3.21889   0.00207   0.00147   0.00842   0.00990   3.22879
    R3        3.20355   0.00146   0.00146   0.00677   0.00826   3.21181
    R4        3.16290   0.00385   0.00134   0.01067   0.01201   3.17491
    R5        2.63407   0.00087  -0.00098   0.00037  -0.00063   2.63344
    R6        2.63721   0.00031  -0.00083  -0.00062  -0.00144   2.63577
    R7        1.80139   0.00050   0.00025   0.00084   0.00109   1.80248
    R8        2.07252   0.00013   0.00013   0.00074   0.00087   2.07339
    R9        2.07758   0.00062   0.00020   0.00211   0.00231   2.07990
   R10        2.90504   0.00032   0.00019  -0.00032  -0.00015   2.90489
   R11        2.08023   0.00050   0.00013   0.00183   0.00197   2.08219
   R12        2.07231   0.00047   0.00016   0.00172   0.00188   2.07419
    A1        2.01854   0.00098   0.00156   0.01012   0.01168   2.03022
    A2        2.12144  -0.00015   0.00112   0.00029   0.00140   2.12283
    A3        2.01499  -0.00046   0.00116  -0.00052   0.00067   2.01566
    A4        1.63347  -0.00045  -0.00083  -0.00302  -0.00392   1.62955
    A5        1.86359  -0.00042  -0.00252  -0.00807  -0.01063   1.85296
    A6        1.75724   0.00042  -0.00132  -0.00110  -0.00250   1.75474
    A7        1.94261   0.00022   0.00013  -0.00083  -0.00078   1.94183
    A8        1.93389  -0.00013   0.00018  -0.00142  -0.00123   1.93266
    A9        1.93157  -0.00185  -0.00188  -0.01506  -0.01694   1.91463
   A10        1.91878   0.00000   0.00018   0.00752   0.00770   1.92648
   A11        1.93220   0.00005   0.00059   0.00009   0.00069   1.93289
   A12        1.86320   0.00082  -0.00012   0.00188   0.00170   1.86490
   A13        1.88485   0.00003  -0.00039  -0.00297  -0.00337   1.88148
   A14        1.93982  -0.00016   0.00007   0.00151   0.00158   1.94140
   A15        1.92553  -0.00074  -0.00031  -0.00790  -0.00821   1.91732
   A16        1.87230  -0.00054   0.00025  -0.00527  -0.00510   1.86720
   A17        1.92397   0.00099  -0.00012   0.01089   0.01079   1.93476
   A18        1.92138   0.00054   0.00028   0.00730   0.00759   1.92897
   A19        1.91613  -0.00036  -0.00008  -0.00366  -0.00372   1.91241
   A20        1.94621  -0.00051  -0.00010  -0.00557  -0.00565   1.94056
   A21        1.88424  -0.00010  -0.00023  -0.00339  -0.00369   1.88054
    D1       -2.34468  -0.00056  -0.00131  -0.02230  -0.02364  -2.36832
    D2       -0.11564  -0.00059   0.00017  -0.01938  -0.01924  -0.13488
    D3        1.66970  -0.00034  -0.00197  -0.02255  -0.02444   1.64526
    D4        1.89515   0.00135   0.00123   0.02002   0.02126   1.91641
    D5       -0.25508   0.00053  -0.00060   0.00940   0.00882  -0.24626
    D6       -2.13700   0.00101   0.00243   0.01847   0.02086  -2.11614
    D7       -0.68063   0.00140   0.00186   0.04114   0.04300  -0.63763
    D8        1.59019   0.00200   0.00275   0.04745   0.05013   1.64032
    D9       -2.99845   0.00157   0.00067   0.04203   0.04276  -2.95569
   D10        0.41242   0.00042   0.00019   0.02239   0.02258   0.43500
   D11       -1.67329   0.00062   0.00020   0.02380   0.02406  -1.64923
   D12        2.53307  -0.00022   0.00039   0.01665   0.01699   2.55006
   D13        2.61840   0.00029   0.00082   0.01051   0.01133   2.62973
   D14       -1.58370   0.00035   0.00082   0.01167   0.01249  -1.57120
   D15        0.51252  -0.00001   0.00071   0.00332   0.00399   0.51651
   D16       -0.58834  -0.00030  -0.00067  -0.01686  -0.01753  -0.60587
   D17        1.50238   0.00037  -0.00071  -0.00895  -0.00967   1.49271
   D18       -2.69334  -0.00031  -0.00112  -0.01914  -0.02024  -2.71358
   D19       -2.68071  -0.00071  -0.00086  -0.02801  -0.02886  -2.70957
   D20       -0.58999  -0.00005  -0.00089  -0.02010  -0.02101  -0.61100
   D21        1.49747  -0.00073  -0.00130  -0.03029  -0.03157   1.46590
   D22        1.51216  -0.00016  -0.00021  -0.02008  -0.02030   1.49186
   D23       -2.68030   0.00051  -0.00024  -0.01217  -0.01244  -2.69274
   D24       -0.59284  -0.00018  -0.00065  -0.02236  -0.02301  -0.61585
         Item               Value     Threshold  Converged?
 Maximum Force            0.010257     0.000450     NO 
 RMS     Force            0.001632     0.000300     NO 
 Maximum Displacement     0.047389     0.001800     NO 
 RMS     Displacement     0.014497     0.001200     NO 
 Predicted change in Energy=-3.645963D-04
 GradGradGradGradGradGradGradGradGradGradGradGradGradGradGradGradGradGrad

                          Input orientation:                          
 ---------------------------------------------------------------------
 Center     Atomic      Atomic             Coordinates (Angstroms)
 Number     Number       Type             X           Y           Z
 ---------------------------------------------------------------------
      1         14           0        0.687913    0.092183   -0.106655
      2          8           0        1.667075    0.804671   -1.055315
      3          8           0       -0.479389   -0.916744   -0.840680
      4          8           0       -0.472780    0.953519    0.787548
      5          8           0        1.397374   -0.822389    1.111100
      6          1           0        2.187216   -1.241886    0.779496
      7          6           0       -1.756219    0.701084    0.303298
      8          1           0       -2.493716    0.790777    1.110690
      9          1           0       -2.026287    1.424503   -0.481000
     10          6           0       -1.740422   -0.720694   -0.280899
     11          1           0       -1.931402   -1.451520    0.521281
     12          1           0       -2.522461   -0.846012   -1.040813
 ---------------------------------------------------------------------
                    Distance matrix (angstroms):
                    1          2          3          4          5
     1  Si   0.000000
     2  O    1.538296   0.000000
     3  O    1.708602   2.759827   0.000000
     4  O    1.699619   2.827946   2.479728   0.000000
     5  O    1.680090   2.722759   2.709352   2.599232   0.000000
     6  H    2.193836   2.797405   3.137112   3.448978   0.953829
     7  C    2.551980   3.684495   2.357190   1.394789   3.594254
     8  H    3.477460   4.690838   3.283441   2.053069   4.212231
     9  H    3.046653   3.788794   2.829082   2.060201   4.393718
    10  C    2.566698   3.812807   1.393554   2.356159   3.434205
    11  H    3.104534   4.530462   2.061374   2.825365   3.438668
    12  H    3.472659   4.503019   2.054069   3.283658   4.471733
                    6          7          8          9         10
     6  H    0.000000
     7  C    4.421830   0.000000
     8  H    5.113955   1.097191   0.000000
     9  H    5.143160   1.100634   1.775831   0.000000
    10  C    4.101514   1.537202   2.188268   2.173392   0.000000
    11  H    4.132026   2.170693   2.385685   3.047143   1.101850
    12  H    5.064711   2.187983   2.703492   2.390569   1.097615
                   11         12
    11  H    0.000000
    12  H    1.776550   0.000000
 Stoichiometry    C2H5O4Si(1-)
 Framework group  C1[X(C2H5O4Si)]
 Deg. of freedom    30
 Full point group                 C1      NOp   1
 Largest Abelian subgroup         C1      NOp   1
 Largest concise Abelian subgroup C1      NOp   1
                         Standard orientation:                         
 ---------------------------------------------------------------------
 Center     Atomic      Atomic             Coordinates (Angstroms)
 Number     Number       Type             X           Y           Z
 ---------------------------------------------------------------------
      1         14           0        0.708807   -0.098923    0.082732
      2          8           0        1.700973   -0.868788    0.971140
      3          8           0       -0.444739    0.865198    0.894596
      4          8           0       -0.467511   -0.903059   -0.843737
      5          8           0        1.401334    0.886795   -1.088365
      6          1           0        2.197149    1.284440   -0.744347
      7          6           0       -1.742728   -0.678772   -0.325129
      8          1           0       -2.492848   -0.718476   -1.124862
      9          1           0       -2.002212   -1.448004    0.418069
     10          6           0       -1.714728    0.705007    0.343723
     11          1           0       -1.916497    1.483303   -0.409681
     12          1           0       -2.484615    0.785082    1.121938
 ---------------------------------------------------------------------
 Rotational constants (GHZ):           3.7992576           1.9483419           1.9179247
 Standard basis: def2TZVPP (5D, 7F)
 There are   339 symmetry adapted cartesian basis functions of A   symmetry.
 There are   298 symmetry adapted basis functions of A   symmetry.
   298 basis functions,   460 primitive gaussians,   339 cartesian basis functions
    32 alpha electrons       32 beta electrons
       nuclear repulsion energy       415.9315696811 Hartrees.
 NAtoms=   12 NActive=   12 NUniq=   12 SFac= 1.00D+00 NAtFMM=   60 NAOKFM=F Big=F
 Integral buffers will be    131072 words long.
 Raffenetti 2 integral format.
 Two-electron integral symmetry is turned on.
 Nuclear repulsion after empirical dispersion term =      415.9270546248 Hartrees.
 One-electron integrals computed using PRISM.
   1 Symmetry operations used in ECPInt.
 ECPInt:  NShTT=    6105 NPrTT=   17760 LenC2=    5984 LenP2D=   14084.
 LDataN:  DoStor=T MaxTD1= 6 Len=  172
 NBasis=   298 RedAO= T EigKep=  3.51D-04  NBF=   298
 NBsUse=   298 1.00D-06 EigRej= -1.00D+00 NBFU=   298
 Initial guess from the checkpoint file:  "OnceDeprotonatedBIQLEG.chk"
 B after Tr=     0.000000   -0.000000    0.000000
         Rot=    0.999542   -0.029979   -0.002947   -0.002931 Ang=  -3.47 deg.
 ExpMin= 7.01D-02 ExpMax= 4.48D+04 ExpMxC= 1.53D+03 IAcc=3 IRadAn=         5 AccDes= 0.00D+00
 Harris functional with IExCor= 4639 and IRadAn=       5 diagonalized for initial guess.
 HarFok:  IExCor= 4639 AccDes= 0.00D+00 IRadAn=         5 IDoV= 1 UseB2=F ITyADJ=14
 ICtDFT=  3500011 ScaDFX=  1.000000  1.000000  1.000000  1.000000
 FoFCou: FMM=F IPFlag=           0 FMFlag=      100000 FMFlg1=           0
         NFxFlg=           0 DoJE=T BraDBF=F KetDBF=T FulRan=T
         wScrn=  0.000000 ICntrl=       500 IOpCl=  0 I1Cent=   200000004 NGrid=           0
         NMat0=    1 NMatS0=      1 NMatT0=    0 NMatD0=    1 NMtDS0=    0 NMtDT0=    0
 Petite list used in FoFCou.
 Requested convergence on RMS density matrix=1.00D-08 within 128 cycles.
 Requested convergence on MAX density matrix=1.00D-06.
 Requested convergence on             energy=1.00D-06.
 No special actions if energy rises.
 Integral accuracy reduced to 1.0D-05 until final iterations.
 Initial convergence to 1.0D-05 achieved.  Increase integral accuracy.
 SCF Done:  E(RwB97XD) =  -669.876664817     A.U. after   12 cycles
            NFock= 12  Conv=0.32D-08     -V/T= 2.0032
   1 Symmetry operations used in ECPInt.
 ECPInt:  NShTT=    6105 NPrTT=   17760 LenC2=    5984 LenP2D=   14084.
 LDataN:  DoStor=T MaxTD1= 7 Len=  274
 Calling FoFJK, ICntrl=      2127 FMM=F ISym2X=0 I1Cent= 0 IOpClX= 0 NMat=1 NMatS=1 NMatT=0.
 ***** Axes restored to original set *****
 -------------------------------------------------------------------
 Center     Atomic                   Forces (Hartrees/Bohr)
 Number     Number              X              Y              Z
 -------------------------------------------------------------------
      1       14          -0.002839979   -0.000888234    0.001520661
      2        8           0.001200787   -0.000314217   -0.000567941
      3        8           0.000008542    0.001170782   -0.001376554
      4        8           0.000953442    0.001808734   -0.000672843
      5        8          -0.001313307   -0.002976345   -0.000061246
      6        1           0.001823208    0.002186309    0.000241834
      7        6          -0.000437945   -0.000906223    0.000278122
      8        1           0.000166854    0.000151537   -0.000056911
      9        1           0.000045040    0.000022980   -0.000185448
     10        6          -0.000060410   -0.000095421    0.000831365
     11        1           0.000380277    0.000002818   -0.000028990
     12        1           0.000073492   -0.000162718    0.000077951
 -------------------------------------------------------------------
 Cartesian Forces:  Max     0.002976345 RMS     0.001076871

 GradGradGradGradGradGradGradGradGradGradGradGradGradGradGradGradGradGrad
 Berny optimization.
 Using GEDIIS/GDIIS optimizer.
 FormGI is forming the generalized inverse of G from B-inverse, IUseBI=4.
 Internal  Forces:  Max     0.002011533 RMS     0.000555206
 Search for a local minimum.
 Step number   4 out of a maximum of   67
 All quantities printed in internal units (Hartrees-Bohrs-Radians)
 Mixed Optimization -- En-DIIS/RFO-DIIS
 Update second derivatives using D2CorX and points    2    3    4
 DE= -5.11D-04 DEPred=-3.65D-04 R= 1.40D+00
 TightC=F SS=  1.41D+00  RLast= 1.27D-01 DXNew= 1.2800D+00 3.8027D-01
 Trust test= 1.40D+00 RLast= 1.27D-01 DXMaxT set to 7.61D-01
 ITU=  1  1  1  0
 Use linear search instead of GDIIS.
     Eigenvalues ---    0.00680   0.01596   0.03172   0.04858   0.04963
     Eigenvalues ---    0.05904   0.06445   0.10350   0.10836   0.11083
     Eigenvalues ---    0.11379   0.12411   0.14291   0.15359   0.15944
     Eigenvalues ---    0.17050   0.21815   0.22552   0.27841   0.34254
     Eigenvalues ---    0.34437   0.34817   0.34853   0.36029   0.39506
     Eigenvalues ---    0.42723   0.43821   0.44999   0.57178   0.57850
 RFO step:  Lambda=-5.57846658D-04 EMin= 6.79820260D-03
 Quartic linear search produced a step of  0.84328.
 Iteration  1 RMS(Cart)=  0.02879708 RMS(Int)=  0.00153605
 Iteration  2 RMS(Cart)=  0.00146805 RMS(Int)=  0.00014725
 Iteration  3 RMS(Cart)=  0.00000599 RMS(Int)=  0.00014716
 Iteration  4 RMS(Cart)=  0.00000000 RMS(Int)=  0.00014716
 Variable       Old X    -DE/DX   Delta X   Delta X   Delta X     New X
                                 (Linear)    (Quad)   (Total)
    R1        2.90696   0.00097   0.01298  -0.00672   0.00626   2.91322
    R2        3.22879  -0.00042   0.00835   0.00224   0.01050   3.23929
    R3        3.21181  -0.00035   0.00697   0.00318   0.01020   3.22202
    R4        3.17491   0.00078   0.01013   0.00570   0.01583   3.19074
    R5        2.63344   0.00011  -0.00053  -0.00294  -0.00355   2.62989
    R6        2.63577   0.00013  -0.00121  -0.00105  -0.00216   2.63361
    R7        1.80248   0.00047   0.00092   0.00151   0.00242   1.80490
    R8        2.07339  -0.00014   0.00073  -0.00025   0.00049   2.07388
    R9        2.07990   0.00014   0.00195   0.00099   0.00294   2.08284
   R10        2.90489  -0.00008  -0.00012  -0.00068  -0.00080   2.90409
   R11        2.08219  -0.00009   0.00166  -0.00010   0.00156   2.08375
   R12        2.07419  -0.00009   0.00159  -0.00008   0.00150   2.07569
    A1        2.03022  -0.00020   0.00985   0.00235   0.01227   2.04249
    A2        2.12283  -0.00027   0.00118  -0.00047   0.00079   2.12362
    A3        2.01566  -0.00101   0.00056  -0.00703  -0.00646   2.00919
    A4        1.62955   0.00054  -0.00331   0.00226  -0.00138   1.62817
    A5        1.85296   0.00053  -0.00896  -0.00151  -0.01041   1.84256
    A6        1.75474   0.00086  -0.00211   0.00626   0.00416   1.75891
    A7        1.94183  -0.00047  -0.00066  -0.00801  -0.00935   1.93248
    A8        1.93266  -0.00030  -0.00104  -0.00234  -0.00359   1.92907
    A9        1.91463  -0.00077  -0.01429  -0.01310  -0.02738   1.88725
   A10        1.92648  -0.00029   0.00649  -0.00165   0.00486   1.93134
   A11        1.93289   0.00013   0.00058   0.00071   0.00138   1.93427
   A12        1.86490   0.00010   0.00143  -0.00111   0.00005   1.86495
   A13        1.88148   0.00002  -0.00285   0.00035  -0.00252   1.87896
   A14        1.94140   0.00038   0.00133   0.00390   0.00532   1.94672
   A15        1.91732  -0.00034  -0.00692  -0.00219  -0.00913   1.90819
   A16        1.86720   0.00009  -0.00430  -0.00124  -0.00601   1.86119
   A17        1.93476  -0.00015   0.00910  -0.00505   0.00420   1.93896
   A18        1.92897  -0.00013   0.00640  -0.00000   0.00649   1.93547
   A19        1.91241   0.00031  -0.00313   0.00291  -0.00017   1.91224
   A20        1.94056  -0.00014  -0.00476   0.00188  -0.00271   1.93784
   A21        1.88054   0.00002  -0.00312   0.00147  -0.00176   1.87878
    D1       -2.36832  -0.00072  -0.01993  -0.03555  -0.05545  -2.42377
    D2       -0.13488  -0.00077  -0.01623  -0.03352  -0.04970  -0.18458
    D3        1.64526   0.00036  -0.02061  -0.02644  -0.04701   1.59825
    D4        1.91641   0.00080   0.01793   0.02611   0.04399   1.96040
    D5       -0.24626   0.00076   0.00744   0.02159   0.02907  -0.21719
    D6       -2.11614  -0.00000   0.01759   0.02190   0.03953  -2.07661
    D7       -0.63763   0.00166   0.03626   0.07184   0.10807  -0.52956
    D8        1.64032   0.00105   0.04227   0.06818   0.11063   1.75094
    D9       -2.95569   0.00201   0.03606   0.07221   0.10813  -2.84756
   D10        0.43500   0.00063   0.01904   0.03521   0.05413   0.48913
   D11       -1.64923   0.00029   0.02029   0.03530   0.05563  -1.59360
   D12        2.55006   0.00044   0.01432   0.03673   0.05085   2.60091
   D13        2.62973  -0.00014   0.00955  -0.00209   0.00735   2.63708
   D14       -1.57120  -0.00022   0.01054  -0.00225   0.00824  -1.56297
   D15        0.51651  -0.00050   0.00337  -0.00518  -0.00198   0.51453
   D16       -0.60587  -0.00023  -0.01478  -0.02135  -0.03615  -0.64201
   D17        1.49271  -0.00018  -0.00816  -0.02652  -0.03474   1.45797
   D18       -2.71358  -0.00004  -0.01707  -0.02166  -0.03870  -2.75228
   D19       -2.70957  -0.00016  -0.02434  -0.02090  -0.04524  -2.75482
   D20       -0.61100  -0.00011  -0.01771  -0.02607  -0.04383  -0.65483
   D21        1.46590   0.00003  -0.02662  -0.02122  -0.04780   1.41810
   D22        1.49186  -0.00020  -0.01712  -0.02238  -0.03954   1.45232
   D23       -2.69274  -0.00015  -0.01049  -0.02755  -0.03813  -2.73087
   D24       -0.61585  -0.00002  -0.01940  -0.02270  -0.04210  -0.65794
         Item               Value     Threshold  Converged?
 Maximum Force            0.002012     0.000450     NO 
 RMS     Force            0.000555     0.000300     NO 
 Maximum Displacement     0.093247     0.001800     NO 
 RMS     Displacement     0.028867     0.001200     NO 
 Predicted change in Energy=-3.800362D-04
 GradGradGradGradGradGradGradGradGradGradGradGradGradGradGradGradGradGrad

                          Input orientation:                          
 ---------------------------------------------------------------------
 Center     Atomic      Atomic             Coordinates (Angstroms)
 Number     Number       Type             X           Y           Z
 ---------------------------------------------------------------------
      1         14           0        0.685999    0.091003   -0.111872
      2          8           0        1.702634    0.803534   -1.025823
      3          8           0       -0.493228   -0.891169   -0.875485
      4          8           0       -0.475734    0.960202    0.783645
      5          8           0        1.362538   -0.871733    1.099063
      6          1           0        2.196018   -1.210530    0.778491
      7          6           0       -1.757598    0.702486    0.301299
      8          1           0       -2.500185    0.801433    1.103277
      9          1           0       -2.027686    1.415881   -0.494277
     10          6           0       -1.738141   -0.721155   -0.277108
     11          1           0       -1.891387   -1.451605    0.534587
[...]
 RMS     Displacement     0.000291     0.001200     YES
 Predicted change in Energy=-4.615556D-08
 Optimization completed.
    -- Stationary point found.
                           ----------------------------
                           !   Optimized Parameters   !
                           ! (Angstroms and Degrees)  !
 --------------------------                            --------------------------
 ! Name  Definition              Value          Derivative Info.                !
 --------------------------------------------------------------------------------
 ! R1    R(1,2)                  1.5403         -DE/DX =    0.0                 !
 ! R2    R(1,3)                  1.7024         -DE/DX =    0.0                 !
 ! R3    R(1,4)                  1.7021         -DE/DX =    0.0                 !
 ! R4    R(1,5)                  1.6829         -DE/DX =   -0.0001              !
 ! R5    R(3,10)                 1.3953         -DE/DX =    0.0                 !
 ! R6    R(4,7)                  1.3951         -DE/DX =    0.0                 !
 ! R7    R(5,6)                  0.955          -DE/DX =    0.0                 !
 ! R8    R(7,8)                  1.0973         -DE/DX =    0.0                 !
 ! R9    R(7,9)                  1.101          -DE/DX =    0.0                 !
 ! R10   R(7,10)                 1.5355         -DE/DX =    0.0                 !
 ! R11   R(10,11)                1.1014         -DE/DX =    0.0                 !
 ! R12   R(10,12)                1.0968         -DE/DX =    0.0                 !
 ! A1    A(2,1,3)              118.1173         -DE/DX =    0.0                 !
 ! A2    A(2,1,4)              120.5985         -DE/DX =    0.0                 !
 ! A3    A(2,1,5)              113.4594         -DE/DX =    0.0                 !
 ! A4    A(3,1,4)               93.3392         -DE/DX =    0.0                 !
 ! A5    A(3,1,5)              105.4158         -DE/DX =    0.0                 !
 ! A6    A(4,1,5)              103.0024         -DE/DX =    0.0                 !
 ! A7    A(1,3,10)             110.4374         -DE/DX =    0.0                 !
 ! A8    A(1,4,7)              111.4146         -DE/DX =    0.0                 !
 ! A9    A(1,5,6)              106.8949         -DE/DX =    0.0                 !
 ! A10   A(4,7,8)              110.5086         -DE/DX =    0.0                 !
 ! A11   A(4,7,9)              110.5753         -DE/DX =    0.0                 !
 ! A12   A(4,7,10)             106.8966         -DE/DX =    0.0                 !
 ! A13   A(8,7,9)              107.8048         -DE/DX =    0.0                 !
 ! A14   A(8,7,10)             111.3511         -DE/DX =    0.0                 !
 ! A15   A(9,7,10)             109.725          -DE/DX =    0.0                 !
 ! A16   A(3,10,7)             106.6372         -DE/DX =    0.0                 !
 ! A17   A(3,10,11)            110.7386         -DE/DX =    0.0                 !
 ! A18   A(3,10,12)            110.4082         -DE/DX =    0.0                 !
 ! A19   A(7,10,11)            109.7042         -DE/DX =    0.0                 !
 ! A20   A(7,10,12)            111.478          -DE/DX =    0.0                 !
 ! A21   A(11,10,12)           107.8971         -DE/DX =    0.0                 !
 ! D1    D(2,1,3,10)          -142.8276         -DE/DX =    0.0                 !
 ! D2    D(4,1,3,10)           -15.2897         -DE/DX =    0.0                 !
 ! D3    D(5,1,3,10)            89.1803         -DE/DX =    0.0                 !
 ! D4    D(2,1,4,7)            118.7679         -DE/DX =    0.0                 !
 ! D5    D(3,1,4,7)             -6.8905         -DE/DX =    0.0                 !
 ! D6    D(5,1,4,7)           -113.5542         -DE/DX =    0.0                 !
 ! D7    D(2,1,5,6)             -4.3605         -DE/DX =    0.0                 !
 ! D8    D(3,1,5,6)            126.376          -DE/DX =    0.0                 !
 ! D9    D(4,1,5,6)           -136.4039         -DE/DX =    0.0                 !
 ! D10   D(1,3,10,7)            30.7524         -DE/DX =    0.0                 !
 ! D11   D(1,3,10,11)          -88.5501         -DE/DX =    0.0                 !
 ! D12   D(1,3,10,12)          152.0117         -DE/DX =    0.0                 !
 ! D13   D(1,4,7,8)            145.9992         -DE/DX =    0.0                 !
 ! D14   D(1,4,7,9)            -94.7177         -DE/DX =    0.0                 !
 ! D15   D(1,4,7,10)            24.675          -DE/DX =    0.0                 !
 ! D16   D(4,7,10,3)           -35.2699         -DE/DX =    0.0                 !
 ! D17   D(4,7,10,11)           84.7024         -DE/DX =    0.0                 !
 ! D18   D(4,7,10,12)         -155.8455         -DE/DX =    0.0                 !
 ! D19   D(8,7,10,3)          -156.059          -DE/DX =    0.0                 !
 ! D20   D(8,7,10,11)          -36.0867         -DE/DX =    0.0                 !
 ! D21   D(8,7,10,12)           83.3654         -DE/DX =    0.0                 !
 ! D22   D(9,7,10,3)            84.6706         -DE/DX =    0.0                 !
 ! D23   D(9,7,10,11)         -155.3571         -DE/DX =    0.0                 !
 ! D24   D(9,7,10,12)          -35.9051         -DE/DX =    0.0                 !
 --------------------------------------------------------------------------------
 GradGradGradGradGradGradGradGradGradGradGradGradGradGradGradGradGradGrad


 ----------------------------------------------------------------------

 Electric dipole moment (input orientation):
 (Debye = 10**-18 statcoulomb cm , SI units = C m)
                  (au)            (Debye)         (10**-30 SI)
   Tot        0.210286D+01      0.534493D+01      0.178288D+02
   x         -0.184659D+01     -0.469356D+01     -0.156560D+02
   y         -0.639047D+00     -0.162430D+01     -0.541807D+01
   z          0.776997D+00      0.197493D+01      0.658766D+01

 Dipole polarizability, Alpha (input orientation).
 (esu units = cm**3 , SI units = C**2 m**2 J**-1)
 Alpha(0;0):
               (au)            (10**-24 esu)      (10**-40 SI)
   iso        0.605284D+02      0.896938D+01      0.997978D+01
   aniso      0.158440D+02      0.234784D+01      0.261233D+01
   xx         0.707593D+02      0.104854D+02      0.116666D+02
   yx        -0.400667D-01     -0.593728D-02     -0.660611D-02
   yy         0.559564D+02      0.829189D+01      0.922597D+01
   zx        -0.108357D+01     -0.160569D+00     -0.178657D+00
   zy        -0.192434D+01     -0.285158D+00     -0.317281D+00
   zz         0.548695D+02      0.813081D+01      0.904675D+01

 ----------------------------------------------------------------------

 Dipole orientation:
    14          0.30958924         -0.26395560         -1.24536434
     8         -0.48303591          0.04385373         -4.02911145
     8         -1.66060609         -1.87472736          0.72283270
     8          0.47298695          2.29045064          0.70248912
     8          3.16198332         -1.62291066         -0.88403492
     1          3.73469054         -2.08616641         -2.53148172
     6         -1.19836468          2.06429333          2.72876954
     1         -0.39808344          2.93619035          4.43135571
     1         -2.99438590          3.02555366          2.30594265
     6         -1.67335116         -0.77170912          3.11773882
     1         -0.16908349         -1.57829480          4.30863481
     1         -3.48622764         -1.11504815          4.06195449

 Electric dipole moment (dipole orientation):
 (Debye = 10**-18 statcoulomb cm , SI units = C m)
                  (au)            (Debye)         (10**-30 SI)
   Tot        0.210286D+01      0.534493D+01      0.178288D+02
   x          0.000000D+00      0.000000D+00      0.000000D+00
   y          0.000000D+00      0.000000D+00      0.000000D+00
   z          0.210286D+01      0.534493D+01      0.178288D+02

 Dipole polarizability, Alpha (dipole orientation).
 (esu units = cm**3 , SI units = C**2 m**2 J**-1)
 Alpha(0;0):
               (au)            (10**-24 esu)      (10**-40 SI)
   iso        0.605284D+02      0.896938D+01      0.997978D+01
   aniso      0.158440D+02      0.234784D+01      0.261233D+01
   xx         0.577781D+02      0.856183D+01      0.952633D+01
   yx        -0.298863D+01     -0.442869D+00     -0.492759D+00
   yy         0.554703D+02      0.821985D+01      0.914582D+01
   zx        -0.472115D+01     -0.699602D+00     -0.778412D+00
   zy         0.232317D+01      0.344258D+00      0.383039D+00
   zz         0.683368D+02      0.101265D+02      0.112672D+02

 ----------------------------------------------------------------------
 Unable to Open any file for archive entry.
 1\1\GINC-CDR1476\Freq\RwB97XD\def2TZVPP\C2H5O4Si1(1-)\ARHENDER\25-Oct-
 2023\0\\#N Geom=AllCheck Guess=TCheck SCRF=Check GenChk RwB97XD/def2TZ
 VPP Freq\\OnceDeprotonated Bidentate QL\\-1,1\Si,0.6775062626,0.038088
 8528,-0.1420899974\O,1.7560763317,0.7193887206,-1.0052171677\O,-0.5265
 339925,-0.8701703442,-0.9318132754\O,-0.4532590414,0.9685765869,0.7254
 859068\O,1.3092439171,-0.984778301,1.0354966437\H,2.2549809756,-1.0075
 134897,0.9050055419\C,-1.7579686207,0.7034575391,0.308654719\H,-2.4540
 113517,0.7774100719,1.1536549104\H,-2.0758721973,1.4310265205,-0.45402
 67913\C,-1.7561054514,-0.7096604647,-0.2920811117\H,-1.878521931,-1.45
 43308306,0.5100794542\H,-2.5786309009,-0.8440028617,-1.0050968324\\Ver
 sion=ES64L-G16RevC.01\State=1-A\HF=-669.8784823\RMSD=1.893e-09\RMSF=1.
 814e-05\ZeroPoint=0.0841391\Thermal=0.0912388\ETot=-669.7872435\HTot=-
 669.7862993\GTot=-669.8258315\Dipole=-1.8465901,-0.6390471,0.7769972\D
 ipoleDeriv=2.6465727,-0.0036326,-0.0564989,-0.0642112,1.6380254,-0.221
 0124,0.0130317,-0.1670997,1.6147584,-1.2234575,-0.1053937,0.1503954,-0
 .1109276,-0.9287388,0.1356108,0.1611066,0.1310609,-0.9743862,-1.457287
 9,-0.1727596,0.0620638,-0.1682596,-0.7023609,-0.1568029,0.0916725,-0.1
 23459,-0.6899042,-1.4989572,0.1529211,0.0253082,0.0824805,-0.7095921,-
 0.1591805,0.0599102,-0.1812925,-0.6491044,-0.7919188,0.1379454,-0.1803
 979,0.2533335,-0.8826463,0.3110777,-0.3213427,0.3103589,-0.9490436,0.1
 520823,-0.0241761,0.0521747,-0.0267486,0.3002994,-0.0245921,0.0553421,
 -0.0290498,0.2967675,0.8999144,-0.0834389,0.0217436,0.0955792,0.272187
 9,-0.0588019,0.1828796,-0.0673544,0.4024725,-0.1872645,0.0352045,0.137
 0461,0.0089402,0.0149713,0.0016591,0.1975656,-0.047671,-0.1405344,-0.0
 850312,0.058987,-0.0553179,0.0989779,-0.1409765,0.1067761,-0.1424323,0
 .1526013,-0.1207422,0.8197267,0.0807787,-0.0643895,-0.0736398,0.273794
 4,-0.0482613,-0.238421,-0.085388,0.4355748,-0.045332,-0.0203187,0.0296
 964,-0.0704296,-0.1480654,0.121589,0.1183425,0.1613567,-0.1421834,-0.2
 29047,-0.056117,-0.1218241,-0.025095,0.0131016,-0.0080616,-0.177655,-0
 .0540634,-0.0836747\Polar=70.7593041,-0.0400667,55.9564315,-1.0835719,
 -1.9243392,54.8694501\Quadrupole=0.8330831,0.3222456,-1.1553287,-3.731
 2633,4.0919279,0.9819234\PG=C01 [X(C2H5O4Si1)]\NImag=0\\0.63615096,0.0
 9870580,0.39409452,-0.13533852,-0.12285550,0.45292849,-0.26404937,-0.1
 3411157,0.17144947,0.27451893,-0.13275446,-0.13524319,0.11092778,0.151
 09378,0.13181208,0.17016898,0.11137116,-0.18883515,-0.19149952,-0.1267
 1289,0.19320898,-0.10500687,-0.04858541,-0.03862971,-0.01374937,-0.015
 68664,-0.00495038,0.41563540,-0.04703916,-0.07890200,-0.03600055,-0.01
 043246,0.00178685,-0.00222015,0.04112101,0.15591700,-0.03486452,-0.035
 23987,-0.07176910,0.00617782,0.00490452,0.00819898,-0.05857717,0.08381
 607,0.19753906,-0.09870077,0.04200470,0.04416877,-0.01129726,0.0081596
 7,0.01560729,0.01701557,0.01035971,0.00806541,0.43688500,0.03965843,-0
 .08110522,-0.03875409,-0.00264085,0.00809076,0.00126531,-0.01135979,-0
 .01324735,-0.01868678,-0.01928318,0.16712316,0.04035938,-0.03954977,-0
 .07584852,0.01108924,-0.00415545,0.00160493,-0.01078305,-0.02147032,-0
 .00748900,0.02476833,0.09234213,0.16118509,-0.07106590,0.04336587,-0.0
 5045274,0.01005009,-0.00695290,0.00842872,-0.01210765,0.00485459,-0.01
 600831,-0.01289374,0.01566014,-0.00573211,0.62205497,0.02237891,-0.103
 64581,0.07712986,0.00143200,-0.00463003,0.02185595,-0.00102002,0.00618
 305,-0.00108616,0.01633716,-0.00199664,0.00382654,-0.06493156,0.118263
 30,-0.02429489,0.07451168,-0.12640608,-0.00137206,0.02175908,-0.012008
 12,-0.01599738,0.00281252,-0.00176480,-0.00026954,-0.00111141,0.005654
 06,-0.01566899,-0.10771851,0.16091291,-0.01810599,0.00133200,0.0021073
 9,0.00035158,-0.00376831,0.00375022,0.00081423,0.00062575,-0.00081384,
 0.00085089,0.00042795,-0.00080431,-0.54073279,0.02684097,0.05628033,0.
 55664308,0.02094435,0.00035607,0.00148556,-0.00325164,0.00043794,-0.00
 365331,-0.00121208,-0.00003406,-0.00030130,0.00283385,-0.00321169,0.00
 147194,0.00592983,-0.01111263,0.01017694,-0.02557292,0.01452964,-0.022
 83646,0.00461108,0.00153860,0.00318464,-0.00362671,0.00050541,-0.00208
 821,0.00114558,-0.00398066,0.00045196,0.00061899,-0.00007716,0.0813165
 7,0.00666996,-0.02355565,-0.06050705,-0.00926362,0.02581290,-0.0419510
 6,0.02728487,0.02086861,0.00476676,-0.00218004,-0.00442716,-0.03290388
 ,0.02043299,0.01222982,-0.22899039,-0.01745393,-0.04082288,0.00342950,
 -0.00443330,-0.00010630,0.00002980,-0.00025279,-0.00018124,0.54049474,
 0.00921068,0.00645932,0.00473091,0.00029201,-0.00069322,-0.00054667,0.
 00854358,-0.01017428,-0.01641000,-0.03612828,-0.07620803,-0.01197113,0
 .00219867,-0.00352199,-0.00052079,0.00015124,-0.00077417,-0.00008300,-
 0.04617982,0.48501205,0.00536208,0.00590945,0.00690120,0.00276143,-0.0
 0160313,-0.00444166,0.01609426,-0.02730792,-0.01744130,-0.05386455,-0.
 01443849,-0.08737571,0.00058893,-0.00096996,0.00055367,-0.00019820,0.0
 0002899,-0.00010301,-0.05434387,-0.04252392,0.55911482,0.00102176,-0.0
 0658308,-0.00243672,-0.00183656,0.00074248,0.00155300,0.00193573,0.000
 38165,0.00024557,-0.04095179,0.00252979,0.01839254,-0.00058735,0.00105
 086,-0.00059011,0.00006966,0.00002426,0.00009029,-0.12729144,0.0108242
 5,0.11187624,0.15948062,-0.00088888,-0.00300496,-0.00205065,0.00012258
 ,0.00056134,0.00031285,0.00376020,-0.00527707,-0.00327787,-0.00903903,
 0.00377284,0.00365625,0.00011948,0.00015429,0.00029059,-0.00000117,-0.
 00000159,0.00002846,0.01066463,-0.05332414,-0.01131207,-0.01080786,0.0
 5213821,-0.00300777,-0.00046548,-0.00080302,0.00040641,0.00026840,0.00
 030378,0.00141040,-0.00310604,0.00025302,-0.00808597,0.00093708,0.0159
 0517,0.00034507,-0.00011184,0.00032072,-0.00001313,0.00002834,-0.00001
 478,0.11697653,-0.01424757,-0.20899953,-0.12712496,0.01428906,0.218102
 46,0.00235561,-0.00260180,-0.00725514,-0.00025064,-0.00034148,0.001133
 70,0.00153333,0.00029326,0.00057931,-0.03167966,0.01907156,-0.02767328
 ,-0.00146765,0.00134027,0.00042179,-0.00012655,0.00033552,-0.00002225,
 -0.05853062,0.03844976,-0.03078714,0.00661476,-0.01197338,0.01277108,0
 .07960901,-0.00106512,0.00021949,0.00090041,0.00035213,0.00010109,-0.0
 0049558,0.00057699,0.00249507,-0.00155684,0.00183510,0.01190633,-0.005
 20209,0.00024240,0.00006816,0.00000013,-0.00002753,0.00000946,-0.00000
 425,0.03840656,-0.15797931,0.10656164,-0.00050984,0.00228657,-0.001693
 65,-0.04273591,0.16840823,0.00287588,-0.00290442,-0.00381962,-0.000789
 51,0.00007058,0.00084323,-0.00073587,0.00150544,0.00102464,-0.01912293
 ,0.00279784,-0.00197123,-0.00084709,0.00074879,0.00004813,0.00004058,0
 .00013926,0.00001994,-0.03254304,0.10952335,-0.16458192,-0.00365567,0.
 01897279,-0.01832923,0.05068595,-0.11916903,0.17651776,-0.04432640,-0.
 02720338,-0.01498050,0.00420576,0.00367923,0.00107973,-0.21176190,0.00
 603913,0.06108224,-0.03377205,-0.02623380,-0.00792700,0.00420509,0.000
 36599,0.00397967,0.00010279,0.00021337,0.00064885,-0.06072317,0.011261
 61,0.00473566,0.00165608,0.01883507,0.00685333,0.00053370,0.00313048,0
 .00298003,0.55600154,-0.01146289,0.00333080,0.00436304,-0.00215496,-0.
 00254520,-0.00136746,0.02349305,-0.07239131,-0.01159445,-0.01239562,-0
 .01205825,-0.01483201,0.00005379,-0.00051768,0.00057772,-0.00001916,-0
 .00022781,0.00001687,-0.00695792,-0.16650861,-0.02046377,0.00067839,0.
 00225720,0.00522364,-0.00111065,-0.02300207,-0.00984336,0.04141174,0.4
 8868703,0.00270113,0.00853461,0.01324315,-0.00253550,-0.00293084,-0.00
 027434,0.07426836,-0.01005434,-0.10922538,-0.01095804,-0.02343546,-0.0
 1307831,-0.00258802,0.00004320,-0.00546555,0.00020556,-0.00023526,-0.0
 0033583,-0.00809931,-0.02229457,-0.08579650,0.00161808,-0.02126077,-0.
 00809217,0.00013074,0.02387084,0.00819798,0.06187097,-0.04570330,0.539
 73337,0.00213766,0.00092519,0.00679143,-0.00144732,-0.00066189,-0.0009
 7269,-0.02016062,-0.02129677,0.03140645,0.00162311,-0.00001933,-0.0005
 8536,0.00033580,0.00053769,-0.00080188,0.00006324,0.00006341,0.0000529
 5,0.00010037,0.00114411,-0.00056541,0.00044393,0.00036285,-0.00016472,
 0.00075214,0.00048092,0.00056582,-0.04938099,-0.01018189,0.00182329,0.
 06243902,0.00139269,0.00018219,0.00178626,-0.00047421,-0.00000629,-0.0
 0014473,-0.00559427,0.00983612,-0.00213251,-0.00091185,0.00239406,-0.0
 0141354,-0.00035682,0.00028720,-0.00080328,0.00004301,-0.00000019,-0.0
 0004215,0.00279300,-0.02306126,0.02387021,0.00059086,0.00107550,-0.000
 45840,-0.00048356,-0.00547193,-0.00274479,-0.01068281,-0.16127823,0.11
 158237,0.01336554,0.17261253,-0.00374152,-0.00258007,-0.00531009,0.001
 27075,0.00071879,0.00055853,0.02185014,0.00828714,-0.01137187,0.000531
 10,0.00157721,0.00101498,0.00071756,-0.00055314,0.00120152,-0.00004708
 ,0.00013261,0.00012024,-0.00073254,-0.01024924,0.00858706,-0.00045389,
 0.00078584,0.00155582,-0.00034628,-0.00287462,0.00064525,0.00351658,0.
 11478400,-0.17047311,-0.02114647,-0.12647520,0.18920525,0.00154037,0.0
 0546680,0.00370767,-0.00126259,-0.00132945,0.00012810,-0.04124399,-0.0
 0533973,-0.00952279,0.00191109,-0.00035699,-0.00028149,-0.00122036,0.0
 0010104,-0.00158063,0.00004007,-0.00005516,-0.00011004,0.00156940,0.00
 023218,-0.00165944,-0.00055539,-0.00115449,-0.00036627,0.00065656,-0.0
 0068619,0.00054585,-0.16674044,-0.02135389,-0.11843724,0.00309365,0.00
 031843,-0.00141835,0.20221163,0.00091965,-0.00274121,-0.00166302,-0.00
 022683,0.00032787,0.00033553,0.00596339,0.00380798,0.00156517,-0.00377
 223,-0.00545997,-0.00270254,-0.00018348,0.00046879,0.00002533,-0.00003
 184,0.00002903,-0.00007123,-0.02212424,0.00077364,-0.01775104,0.001078
 23,-0.00063819,-0.00066354,-0.00024360,0.00095891,0.00090355,-0.020816
 64,-0.05574588,-0.01811648,0.01528016,0.00343030,0.01644668,0.02415744
 ,0.05478874,0.00261624,-0.00134287,-0.00181986,-0.00014317,0.00037987,
 0.00033543,0.01813861,0.00259256,0.01602643,-0.00129184,-0.00311234,0.
 00047570,-0.00009959,0.00016531,0.00050919,-0.00000048,-0.00001014,0.0
 0007000,-0.00881862,0.00459265,-0.00641711,0.00048562,-0.00043448,-0.0
 0020223,0.00036154,-0.00033696,0.00140508,-0.12383955,-0.02116093,-0.1
 6843331,-0.01640340,-0.00302426,-0.01573356,0.12899464,0.02169158,0.17
 378425\\-0.00004120,0.00002339,-0.00002301,0.00001729,0.00003701,0.000
 00551,0.00001074,-0.00002153,0.00000084,0.00002843,0.00001837,-0.00000
 459,0.00000414,-0.00005556,0.00003386,0.00000735,0.00000416,-0.0000094
 6,-0.00001320,-0.00002054,-0.00000208,-0.00000165,-0.00000484,-0.00000
 034,0.00000039,0.00000049,0.00000331,-0.00001426,0.00001682,0.00000465
 ,0.00000157,-0.00000175,-0.00000599,0.00000040,0.00000397,-0.00000270\
 \\@
 The archive entry for this job was punched.


 IF MATHEMATICALLY YOU END UP WITH THE INCORRECT ANSWER,
 TRY MULTIPLYING BY THE PAGE NUMBER.
 Job cpu time:       0 days  1 hours 18 minutes 26.3 seconds.
 Elapsed time:       0 days  0 hours  5 minutes  0.3 seconds.
 File lengths (MBytes):  RWF=    111 Int=      0 D2E=      0 Chk=      8 Scr=      1
 Normal termination of Gaussian 16 at Wed Oct 25 11:27:41 2023.
