 Entering Gaussian System, Link 0=/opt/software/gaussian/g16.c01/g16
 Initial command:
 /opt/software/gaussian/g16.c01/l1.exe "/scratch/arhender/17935306/Gau-12443.inp" -scrdir="/scratch/arhender/17935306/"
 Entering Link 1 = /opt/software/gaussian/g16.c01/l1.exe PID=     12445.
  
 Copyright (c) 1988-2019, Gaussian, Inc.  All Rights Reserved.
  
 This is part of the Gaussian(R) 16 program.  It is based on
 the Gaussian(R) 09 system (copyright 2009, Gaussian, Inc.),
 the Gaussian(R) 03 system (copyright 2003, Gaussian, Inc.),
 the Gaussian(R) 98 system (copyright 1998, Gaussian, Inc.),
 the Gaussian(R) 94 system (copyright 1995, Gaussian, Inc.),
 the Gaussian 92(TM) system (copyright 1992, Gaussian, Inc.),
 the Gaussian 90(TM) system (copyright 1990, Gaussian, Inc.),
 the Gaussian 88(TM) system (copyright 1988, Gaussian, Inc.),
 the Gaussian 86(TM) system (copyright 1986, Carnegie Mellon
 University), and the Gaussian 82(TM) system (copyright 1983,
 Carnegie Mellon University). Gaussian is a federally registered
 trademark of Gaussian, Inc.
  
 This software contains proprietary and confidential information,
 including trade secrets, belonging to Gaussian, Inc.
  
 This software is provided under written license and may be
 used, copied, transmitted, or stored only in accord with that
 written license.
  
 The following legend is applicable only to US Government
 contracts under FAR:
  
                    RESTRICTED RIGHTS LEGEND
  
 Use, reproduction and disclosure by the US Government is
 subject to restrictions as set forth in subparagraphs (a)
 and (c) of the Commercial Computer Software - Restricted
 Rights clause in FAR 52.227-19.
  
 Gaussian, Inc.
 340 Quinnipiac St., Bldg. 40, Wallingford CT 06492
  
  
 ---------------------------------------------------------------
 Warning -- This program may not be used in any manner that
 competes with the business of Gaussian, Inc. or will provide
 assistance to any competitor of Gaussian, Inc.  The licensee
 of this program is prohibited from giving any competitor of
 Gaussian, Inc. access to this program.  By using this program,
 the user acknowledges that Gaussian, Inc. is engaged in the
 business of creating and licensing software in the field of
 computational chemistry and represents and warrants to the
 licensee that it is not a competitor of Gaussian, Inc. and that
 it will not use this program in any manner prohibited above.
 ---------------------------------------------------------------
  

 Cite this work as:
 Gaussian 16, Revision C.01,
 M. J. Frisch, G. W. Trucks, H. B. Schlegel, G. E. Scuseria, 
 M. A. Robb, J. R. Cheeseman, G. Scalmani, V. Barone, 
 G. A. Petersson, H. Nakatsuji, X. Li, M. Caricato, A. V. Marenich, 
 J. Bloino, B. G. Janesko, R. Gomperts, B. Mennucci, H. P. Hratchian, 
 J. V. Ortiz, A. F. Izmaylov, J. L. Sonnenberg, D. Williams-Young, 
 F. Ding, F. Lipparini, F. Egidi, J. Goings, B. Peng, A. Petrone, 
 T. Henderson, D. Ranasinghe, V. G. Zakrzewski, J. Gao, N. Rega, 
 G. Zheng, W. Liang, M. Hada, M. Ehara, K. Toyota, R. Fukuda, 
 J. Hasegawa, M. Ishida, T. Nakajima, Y. Honda, O. Kitao, H. Nakai, 
 T. Vreven, K. Throssell, J. A. Montgomery, Jr., J. E. Peralta, 
 F. Ogliaro, M. J. Bearpark, J. J. Heyd, E. N. Brothers, K. N. Kudin, 
 V. N. Staroverov, T. A. Keith, R. Kobayashi, J. Normand, 
 K. Raghavachari, A. P. Rendell, J. C. Burant, S. S. Iyengar, 
 J. Tomasi, M. Cossi, J. M. Millam, M. Klene, C. Adamo, R. Cammi, 
 J. W. Ochterski, R. L. Martin, K. Morokuma, O. Farkas, 
 J. B. Foresman, and D. J. Fox, Gaussian, Inc., Wallingford CT, 2019.
 
 ******************************************
 Gaussian 16:  ES64L-G16RevC.01  3-Jul-2019
                18-Mar-2024 
 ******************************************
 %chk=1QmonoL_opt.chk
 %mem=1600MB
 %nprocs=4
 Will use up to    4 processors via shared memory.
 ---------------------------------------------
 # opt freq wb97xd/def2tzvpp geom=connectivity
 ---------------------------------------------
 1/18=20,19=15,26=3,38=1,57=2/1,3;
 2/9=110,12=2,17=6,18=5,40=1/2;
 3/5=44,7=202,11=2,25=1,30=1,71=1,74=-58/1,2,3;
 4//1;
 5/5=2,38=5/2;
 6/7=2,8=2,9=2,10=2,28=1/1;
 7//1,2,3,16;
 1/18=20,19=15,26=3/3(2);
 2/9=110/2;
 99//99;
 2/9=110/2;
 3/5=44,7=202,11=2,25=1,30=1,71=1,74=-58/1,2,3;
 4/5=5,16=3,69=1/1;
 5/5=2,38=5/2;
 7//1,2,3,16;
 1/18=20,19=15,26=3/3(-5);
 2/9=110/2;
 6/7=2,8=2,9=2,10=2,19=2,28=1/1;
 99/9=1/99;
 -----------------------------------------------
 Once deprotonated Q monodentate L1 optimization
 -----------------------------------------------
 Symbolic Z-matrix:
 Charge = -1 Multiplicity = 1
 Si                    1.0462    0.0366   -0.0138 
 O                     1.4117   -0.6061    1.4411 
 H                     1.9726   -0.0968    2.0201 
 O                     0.5833    1.5973    0.0813 
 O                     2.352    -0.0534   -0.9778 
 H                     2.3822    0.5489   -1.7167 
 O                    -0.1528   -0.8906   -0.6207 
 C                    -1.3532   -1.2037    0.0417 
 H                    -1.2114   -1.2251    1.127 
 H                    -1.6601   -2.2035   -0.2738 
 C                    -2.4664   -0.241    -0.3031 
 H                    -2.5405   -0.1507   -1.3908 
 H                    -3.4081   -0.6429    0.0848 
 O                    -2.1962    1.0269    0.2863 
 H                    -2.8776    1.6455    0.0292 
 

 GradGradGradGradGradGradGradGradGradGradGradGradGradGradGradGradGradGrad
 Berny optimization.
 Initialization pass.
                           ----------------------------
                           !    Initial Parameters    !
                           ! (Angstroms and Degrees)  !
 --------------------------                            --------------------------
 ! Name  Definition              Value          Derivative Info.                !
 --------------------------------------------------------------------------------
 ! R1    R(1,2)                  1.632          estimate D2E/DX2                !
 ! R2    R(1,4)                  1.6307         estimate D2E/DX2                !
 ! R3    R(1,5)                  1.6256         estimate D2E/DX2                !
 ! R4    R(1,7)                  1.6327         estimate D2E/DX2                !
 ! R5    R(2,3)                  0.9535         estimate D2E/DX2                !
 ! R6    R(5,6)                  0.9538         estimate D2E/DX2                !
 ! R7    R(7,8)                  1.4063         estimate D2E/DX2                !
 ! R8    R(8,9)                  1.0947         estimate D2E/DX2                !
 ! R9    R(8,10)                 1.0924         estimate D2E/DX2                !
 ! R10   R(8,11)                 1.5116         estimate D2E/DX2                !
 ! R11   R(11,12)                1.094          estimate D2E/DX2                !
 ! R12   R(11,13)                1.0949         estimate D2E/DX2                !
 ! R13   R(11,14)                1.4241         estimate D2E/DX2                !
 ! R14   R(14,15)                0.9555         estimate D2E/DX2                !
 ! A1    A(2,1,4)              112.8611         estimate D2E/DX2                !
 ! A2    A(2,1,5)              109.0846         estimate D2E/DX2                !
 ! A3    A(2,1,7)              105.7957         estimate D2E/DX2                !
 ! A4    A(4,1,5)              108.3971         estimate D2E/DX2                !
 ! A5    A(4,1,7)              110.9003         estimate D2E/DX2                !
 ! A6    A(5,1,7)              109.7571         estimate D2E/DX2                !
 ! A7    A(1,2,3)              117.5628         estimate D2E/DX2                !
 ! A8    A(1,5,6)              116.7373         estimate D2E/DX2                !
 ! A9    A(1,7,8)              125.3235         estimate D2E/DX2                !
 ! A10   A(7,8,9)              111.1459         estimate D2E/DX2                !
 ! A11   A(7,8,10)             107.9106         estimate D2E/DX2                !
 ! A12   A(7,8,11)             112.2949         estimate D2E/DX2                !
 ! A13   A(9,8,10)             107.7476         estimate D2E/DX2                !
 ! A14   A(9,8,11)             109.5105         estimate D2E/DX2                !
 ! A15   A(10,8,11)            108.0663         estimate D2E/DX2                !
 ! A16   A(8,11,12)            109.2236         estimate D2E/DX2                !
 ! A17   A(8,11,13)            108.5912         estimate D2E/DX2                !
 ! A18   A(8,11,14)            109.4447         estimate D2E/DX2                !
 ! A19   A(12,11,13)           108.923          estimate D2E/DX2                !
 ! A20   A(12,11,14)           110.541          estimate D2E/DX2                !
 ! A21   A(13,11,14)           110.0825         estimate D2E/DX2                !
 ! A22   A(11,14,15)           109.2519         estimate D2E/DX2                !
 ! D1    D(4,1,2,3)            -46.78           estimate D2E/DX2                !
 ! D2    D(5,1,2,3)             73.7704         estimate D2E/DX2                !
 ! D3    D(7,1,2,3)           -168.2209         estimate D2E/DX2                !
 ! D4    D(2,1,5,6)           -158.4809         estimate D2E/DX2                !
 ! D5    D(4,1,5,6)            -35.2299         estimate D2E/DX2                !
 ! D6    D(7,1,5,6)             86.031          estimate D2E/DX2                !
 ! D7    D(2,1,7,8)             52.8789         estimate D2E/DX2                !
 ! D8    D(4,1,7,8)            -69.819          estimate D2E/DX2                !
 ! D9    D(5,1,7,8)            170.4375         estimate D2E/DX2                !
 ! D10   D(1,7,8,9)            -29.6812         estimate D2E/DX2                !
 ! D11   D(1,7,8,10)          -147.6173         estimate D2E/DX2                !
 ! D12   D(1,7,8,11)            93.3857         estimate D2E/DX2                !
 ! D13   D(7,8,11,12)           50.663          estimate D2E/DX2                !
 ! D14   D(7,8,11,13)          169.3253         estimate D2E/DX2                !
 ! D15   D(7,8,11,14)          -70.48           estimate D2E/DX2                !
 ! D16   D(9,8,11,12)          174.6445         estimate D2E/DX2                !
 ! D17   D(9,8,11,13)          -66.6932         estimate D2E/DX2                !
 ! D18   D(9,8,11,14)           53.5014         estimate D2E/DX2                !
 ! D19   D(10,8,11,12)         -68.2425         estimate D2E/DX2                !
 ! D20   D(10,8,11,13)          50.4197         estimate D2E/DX2                !
 ! D21   D(10,8,11,14)         170.6144         estimate D2E/DX2                !
 ! D22   D(8,11,14,15)         177.074          estimate D2E/DX2                !
 ! D23   D(12,11,14,15)         56.732          estimate D2E/DX2                !
 ! D24   D(13,11,14,15)        -63.6476         estimate D2E/DX2                !
 --------------------------------------------------------------------------------
 Trust Radius=3.00D-01 FncErr=1.00D-07 GrdErr=1.00D-06 EigMax=2.50D+02 EigMin=1.00D-04
 Number of steps in this run=     70 maximum allowed number of steps=    100.
 GradGradGradGradGradGradGradGradGradGradGradGradGradGradGradGradGradGrad

                          Input orientation:                          
 ---------------------------------------------------------------------
 Center     Atomic      Atomic             Coordinates (Angstroms)
 Number     Number       Type             X           Y           Z
 ---------------------------------------------------------------------
      1         14           0        1.046200    0.036600   -0.013800
      2          8           0        1.411700   -0.606100    1.441100
      3          1           0        1.972600   -0.096800    2.020100
      4          8           0        0.583300    1.597300    0.081300
      5          8           0        2.352000   -0.053400   -0.977800
      6          1           0        2.382200    0.548900   -1.716700
      7          8           0       -0.152800   -0.890600   -0.620700
      8          6           0       -1.353200   -1.203700    0.041700
      9          1           0       -1.211400   -1.225100    1.127000
     10          1           0       -1.660100   -2.203500   -0.273800
     11          6           0       -2.466400   -0.241000   -0.303100
     12          1           0       -2.540500   -0.150700   -1.390800
     13          1           0       -3.408100   -0.642900    0.084800
     14          8           0       -2.196200    1.026900    0.286300
     15          1           0       -2.877600    1.645500    0.029200
 ---------------------------------------------------------------------
                    Distance matrix (angstroms):
                    1          2          3          4          5
     1  Si   0.000000
     2  O    1.631989   0.000000
     3  H    2.238920   0.953539   0.000000
     4  O    1.630676   2.718506   2.925590   0.000000
     5  O    1.625580   2.653435   3.022124   2.640985   0.000000
     6  H    2.224234   3.499657   3.814233   2.750998   0.953756
     7  O    1.632675   2.603770   3.481561   2.687805   2.665042
     8  C    2.701582   3.155965   4.024952   3.405466   4.011369
     9  H    2.826671   2.713388   3.494073   3.504337   4.301265
    10  H    3.522742   3.863745   4.785047   4.427756   4.606028
    11  C    3.535409   4.267926   5.012262   3.581589   4.869024
    12  H    3.846508   4.883332   5.657315   3.870492   4.910865
    13  H    4.506909   5.007133   5.744175   4.577093   5.886882
    14  O    3.403515   4.125190   4.652704   2.844820   4.842636
    15  H    4.241063   5.045915   5.524829   3.461628   5.590083
                    6          7          8          9         10
     6  H    0.000000
     7  O    3.114418   0.000000
     8  C    4.485175   1.406331   0.000000
     9  H    4.914028   2.070502   1.094733   0.000000
    10  H    5.098809   2.028793   1.092395   1.766590   0.000000
    11  C    5.111862   2.423963   1.511586   2.142117   2.121882
    12  H    4.982833   2.615649   2.137884   3.043051   2.497355
    13  H    6.180078   3.340069   2.130485   2.500126   2.370563
    14  O    5.020183   2.945325   2.397093   2.597713   3.322138
    15  H    5.649442   3.778718   3.231392   3.495959   4.048323
                   11         12         13         14         15
    11  C    0.000000
    12  H    1.093954   0.000000
    13  H    1.094892   1.781119   0.000000
    14  O    1.424068   2.077967   2.073050   0.000000
    15  H    1.959181   2.314383   2.349744   0.955548   0.000000
 Stoichiometry    C2H7O5Si(1-)
 Framework group  C1[X(C2H7O5Si)]
 Deg. of freedom    39
 Full point group                 C1      NOp   1
 Largest Abelian subgroup         C1      NOp   1
 Largest concise Abelian subgroup C1      NOp   1
                         Standard orientation:                         
 ---------------------------------------------------------------------
 Center     Atomic      Atomic             Coordinates (Angstroms)
 Number     Number       Type             X           Y           Z
 ---------------------------------------------------------------------
      1         14           0        1.041368    0.055472   -0.010469
      2          8           0        1.404765   -0.616348    1.431748
      3          1           0        1.968097   -0.120555    2.020036
      4          8           0        0.585193    1.616042    0.114548
      5          8           0        2.346341   -0.021746   -0.976696
      6          1           0        2.378787    0.594369   -1.704020
      7          8           0       -0.161859   -0.854886   -0.634265
      8          6           0       -1.363292   -1.175404    0.022693
      9          1           0       -1.221100   -1.218054    1.107314
     10          1           0       -1.674608   -2.167701   -0.311608
     11          6           0       -2.472516   -0.201574   -0.303143
     12          1           0       -2.546715   -0.090280   -1.388889
     13          1           0       -3.415754   -0.606757    0.077538
     14          8           0       -2.196630    1.053718    0.310128
     15          1           0       -2.875492    1.680001    0.065202
 ---------------------------------------------------------------------
 Rotational constants (GHZ):           2.9407563           1.1577347           1.0679347
 Standard basis: def2TZVPP (5D, 7F)
 There are   405 symmetry adapted cartesian basis functions of A   symmetry.
 There are   357 symmetry adapted basis functions of A   symmetry.
   357 basis functions,   545 primitive gaussians,   405 cartesian basis functions
    37 alpha electrons       37 beta electrons
       nuclear repulsion energy       512.6463679091 Hartrees.
 NAtoms=   15 NActive=   15 NUniq=   15 SFac= 1.00D+00 NAtFMM=   60 NAOKFM=F Big=F
 Integral buffers will be    131072 words long.
 Raffenetti 2 integral format.
 Two-electron integral symmetry is turned on.
 Nuclear repulsion after empirical dispersion term =      512.6398287046 Hartrees.
 One-electron integrals computed using PRISM.
   1 Symmetry operations used in ECPInt.
 ECPInt:  NShTT=    8911 NPrTT=   25186 LenC2=    8527 LenP2D=   19002.
 LDataN:  DoStor=T MaxTD1= 6 Len=  172
 NBasis=   357 RedAO= T EigKep=  2.64D-04  NBF=   357
 NBsUse=   357 1.00D-06 EigRej= -1.00D+00 NBFU=   357
 ExpMin= 7.01D-02 ExpMax= 4.48D+04 ExpMxC= 1.53D+03 IAcc=3 IRadAn=         5 AccDes= 0.00D+00
 Harris functional with IExCor= 4639 and IRadAn=       5 diagonalized for initial guess.
 HarFok:  IExCor= 4639 AccDes= 0.00D+00 IRadAn=         5 IDoV= 1 UseB2=F ITyADJ=14
 ICtDFT=  3500011 ScaDFX=  1.000000  1.000000  1.000000  1.000000
 FoFCou: FMM=F IPFlag=           0 FMFlag=      100000 FMFlg1=           0
         NFxFlg=           0 DoJE=T BraDBF=F KetDBF=T FulRan=T
         wScrn=  0.000000 ICntrl=       500 IOpCl=  0 I1Cent=   200000004 NGrid=           0
         NMat0=    1 NMatS0=      1 NMatT0=    0 NMatD0=    1 NMtDS0=    0 NMtDT0=    0
 Petite list used in FoFCou.
 Requested convergence on RMS density matrix=1.00D-08 within 128 cycles.
 Requested convergence on MAX density matrix=1.00D-06.
 Requested convergence on             energy=1.00D-06.
 No special actions if energy rises.
 Integral accuracy reduced to 1.0D-05 until final iterations.
 Initial convergence to 1.0D-05 achieved.  Increase integral accuracy.
 SCF Done:  E(RwB97XD) =  -746.295540776     A.U. after   15 cycles
            NFock= 15  Conv=0.56D-08     -V/T= 2.0032

 **********************************************************************

            Population analysis using the SCF Density.

 **********************************************************************

 Orbital symmetries:
       Occupied  (A) (A) (A) (A) (A) (A) (A) (A) (A) (A) (A) (A)
                 (A) (A) (A) (A) (A) (A) (A) (A) (A) (A) (A) (A)
                 (A) (A) (A) (A) (A) (A) (A) (A) (A) (A) (A) (A)
                 (A)
       Virtual   (A) (A) (A) (A) (A) (A) (A) (A) (A) (A) (A) (A)
                 (A) (A) (A) (A) (A) (A) (A) (A) (A) (A) (A) (A)
                 (A) (A) (A) (A) (A) (A) (A) (A) (A) (A) (A) (A)
                 (A) (A) (A) (A) (A) (A) (A) (A) (A) (A) (A) (A)
                 (A) (A) (A) (A) (A) (A) (A) (A) (A) (A) (A) (A)
                 (A) (A) (A) (A) (A) (A) (A) (A) (A) (A) (A) (A)
                 (A) (A) (A) (A) (A) (A) (A) (A) (A) (A) (A) (A)
                 (A) (A) (A) (A) (A) (A) (A) (A) (A) (A) (A) (A)
                 (A) (A) (A) (A) (A) (A) (A) (A) (A) (A) (A) (A)
                 (A) (A) (A) (A) (A) (A) (A) (A) (A) (A) (A) (A)
                 (A) (A) (A) (A) (A) (A) (A) (A) (A) (A) (A) (A)
                 (A) (A) (A) (A) (A) (A) (A) (A) (A) (A) (A) (A)
                 (A) (A) (A) (A) (A) (A) (A) (A) (A) (A) (A) (A)
                 (A) (A) (A) (A) (A) (A) (A) (A) (A) (A) (A) (A)
                 (A) (A) (A) (A) (A) (A) (A) (A) (A) (A) (A) (A)
                 (A) (A) (A) (A) (A) (A) (A) (A) (A) (A) (A) (A)
                 (A) (A) (A) (A) (A) (A) (A) (A) (A) (A) (A) (A)
                 (A) (A) (A) (A) (A) (A) (A) (A) (A) (A) (A) (A)
                 (A) (A) (A) (A) (A) (A) (A) (A) (A) (A) (A) (A)
                 (A) (A) (A) (A) (A) (A) (A) (A) (A) (A) (A) (A)
                 (A) (A) (A) (A) (A) (A) (A) (A) (A) (A) (A) (A)
                 (A) (A) (A) (A) (A) (A) (A) (A) (A) (A) (A) (A)
                 (A) (A) (A) (A) (A) (A) (A) (A) (A) (A) (A) (A)
                 (A) (A) (A) (A) (A) (A) (A) (A) (A) (A) (A) (A)
                 (A) (A) (A) (A) (A) (A) (A) (A) (A) (A) (A) (A)
                 (A) (A) (A) (A) (A) (A) (A) (A) (A) (A) (A) (A)
                 (A) (A) (A) (A) (A) (A) (A) (A)
 The electronic state is 1-A.
 Alpha  occ. eigenvalues --  -66.06359 -19.09676 -19.06126 -19.05714 -19.05151
 Alpha  occ. eigenvalues --  -18.90557 -10.19078 -10.18532  -5.18194  -3.52798
 Alpha  occ. eigenvalues --   -3.52749  -3.52437  -0.97660  -0.94498  -0.91792
 Alpha  occ. eigenvalues --   -0.90639  -0.70739  -0.69249  -0.56217  -0.47762
 Alpha  occ. eigenvalues --   -0.46949  -0.42611  -0.41545  -0.37956  -0.36573
 Alpha  occ. eigenvalues --   -0.35516  -0.29516  -0.28276  -0.27466  -0.24652
 Alpha  occ. eigenvalues --   -0.23778  -0.22816  -0.21573  -0.21206  -0.14255
 Alpha  occ. eigenvalues --   -0.08341  -0.07704
 Alpha virt. eigenvalues --    0.23138   0.26281   0.26671   0.29060   0.30201
 Alpha virt. eigenvalues --    0.30590   0.32509   0.34847   0.35657   0.37868
 Alpha virt. eigenvalues --    0.38761   0.40288   0.42822   0.43606   0.45853
 Alpha virt. eigenvalues --    0.48569   0.50562   0.51877   0.53036   0.55304
 Alpha virt. eigenvalues --    0.56392   0.56827   0.58028   0.59249   0.59873
 Alpha virt. eigenvalues --    0.62013   0.63236   0.64166   0.65992   0.66795
 Alpha virt. eigenvalues --    0.67404   0.68185   0.69031   0.70116   0.72217
 Alpha virt. eigenvalues --    0.72488   0.72986   0.75574   0.75821   0.76954
 Alpha virt. eigenvalues --    0.78143   0.80326   0.80676   0.82218   0.82959
 Alpha virt. eigenvalues --    0.85949   0.87241   0.90140   0.91893   0.93720
 Alpha virt. eigenvalues --    0.94199   0.96641   0.98414   0.99337   0.99848
 Alpha virt. eigenvalues --    1.00975   1.04109   1.05461   1.06028   1.06821
 Alpha virt. eigenvalues --    1.09215   1.09405   1.11368   1.13853   1.16284
 Alpha virt. eigenvalues --    1.18048   1.19205   1.22150   1.23757   1.24645
 Alpha virt. eigenvalues --    1.29646   1.30879   1.31072   1.32241   1.34805
 Alpha virt. eigenvalues --    1.35879   1.37210   1.37939   1.39157   1.42606
 Alpha virt. eigenvalues --    1.43700   1.43860   1.46691   1.47686   1.48442
 Alpha virt. eigenvalues --    1.50790   1.53100   1.56198   1.57197   1.57817
 Alpha virt. eigenvalues --    1.60266   1.61153   1.62812   1.64624   1.67001
 Alpha virt. eigenvalues --    1.69530   1.70974   1.74553   1.76406   1.78444
 Alpha virt. eigenvalues --    1.78732   1.80955   1.85879   1.96656   1.97015
 Alpha virt. eigenvalues --    1.99083   2.00838   2.03361   2.04986   2.05299
 Alpha virt. eigenvalues --    2.07928   2.11468   2.13356   2.14551   2.18506
 Alpha virt. eigenvalues --    2.19595   2.20821   2.23502   2.26239   2.28808
 Alpha virt. eigenvalues --    2.30214   2.33653   2.34332   2.37410   2.40253
 Alpha virt. eigenvalues --    2.40879   2.42073   2.44923   2.45628   2.47969
 Alpha virt. eigenvalues --    2.50871   2.52990   2.54311   2.55470   2.62984
 Alpha virt. eigenvalues --    2.65717   2.66058   2.71770   2.76404   2.80580
 Alpha virt. eigenvalues --    2.83954   2.89386   2.91180   2.92623   2.94937
 Alpha virt. eigenvalues --    2.96254   3.02128   3.03534   3.05557   3.06888
 Alpha virt. eigenvalues --    3.11793   3.13471   3.15345   3.17809   3.21092
 Alpha virt. eigenvalues --    3.22367   3.23039   3.23612   3.25955   3.26194
 Alpha virt. eigenvalues --    3.29054   3.30131   3.32566   3.36455   3.38752
 Alpha virt. eigenvalues --    3.38918   3.44000   3.46602   3.48633   3.49428
 Alpha virt. eigenvalues --    3.54119   3.55676   3.56390   3.58191   3.59240
 Alpha virt. eigenvalues --    3.60247   3.62144   3.63100   3.65088   3.65819
 Alpha virt. eigenvalues --    3.66938   3.74249   3.75437   3.78155   3.81286
 Alpha virt. eigenvalues --    3.83524   3.86106   3.87102   3.88131   3.89320
 Alpha virt. eigenvalues --    3.93118   3.95631   3.97132   3.99517   4.01465
 Alpha virt. eigenvalues --    4.03405   4.07376   4.09470   4.14219   4.15299
 Alpha virt. eigenvalues --    4.16492   4.19342   4.22579   4.24512   4.27668
 Alpha virt. eigenvalues --    4.28667   4.29315   4.30393   4.32263   4.34241
 Alpha virt. eigenvalues --    4.35694   4.38491   4.39529   4.43089   4.48906
 Alpha virt. eigenvalues --    4.51254   4.53337   4.55607   4.56983   4.62178
 Alpha virt. eigenvalues --    4.65992   4.69530   4.73466   4.77026   4.85614
 Alpha virt. eigenvalues --    4.89869   4.91208   4.92187   4.99003   5.02237
 Alpha virt. eigenvalues --    5.04469   5.07657   5.10963   5.15729   5.17703
 Alpha virt. eigenvalues --    5.19209   5.20408   5.25617   5.26975   5.28055
 Alpha virt. eigenvalues --    5.30899   5.34900   5.45092   5.46685   5.47873
 Alpha virt. eigenvalues --    5.53595   5.55386   5.56290   5.58234   5.58530
 Alpha virt. eigenvalues --    5.61002   5.61797   5.62259   5.64086   5.66172
 Alpha virt. eigenvalues --    5.66573   5.70462   5.70755   5.72084   5.73094
 Alpha virt. eigenvalues --    5.79657   5.81009   5.84148   5.85771   5.90370
 Alpha virt. eigenvalues --    5.93137   6.02145   6.06702   6.07491   6.13824
 Alpha virt. eigenvalues --    6.19017   6.23336   6.26887   6.37689   6.46678
 Alpha virt. eigenvalues --    6.67298   6.73528   6.74051   6.75969   6.77220
 Alpha virt. eigenvalues --    6.84240   6.84818   6.87266   6.88058   6.88459
 Alpha virt. eigenvalues --    6.90406   6.91382   6.92211   6.97329   6.97977
 Alpha virt. eigenvalues --    6.98865   7.00678   7.01012   7.03376   7.05471
 Alpha virt. eigenvalues --    7.06914   7.13904   7.14605   7.17336   7.26609
 Alpha virt. eigenvalues --    7.29126   7.32212   7.42620   7.51264   7.55625
 Alpha virt. eigenvalues --    7.60827   7.62180   7.65076   7.71770   7.82935
 Alpha virt. eigenvalues --    7.87616   7.96769  12.44517  23.51239  23.64468
 Alpha virt. eigenvalues --   43.98147  44.03308  44.11447  44.26673  44.44738
          Condensed to atoms (all electrons):
               1          2          3          4          5          6
     1  Si  11.544405   0.379134  -0.030055   0.753764   0.400896  -0.027380
     2  O    0.379134   7.846707   0.336946  -0.052901  -0.032266   0.001852
     3  H   -0.030055   0.336946   0.529474   0.000309  -0.000817  -0.000161
     4  O    0.753764  -0.052901   0.000309   8.243263  -0.063602   0.003206
     5  O    0.400896  -0.032266  -0.000817  -0.063602   7.862089   0.328729
     6  H   -0.027380   0.001852  -0.000161   0.003206   0.328729   0.528020
     7  O    0.360781  -0.027744   0.001729  -0.044769  -0.031610  -0.000980
     8  C   -0.054765  -0.014604   0.000777  -0.011573  -0.001752  -0.000080
     9  H   -0.016442   0.016057  -0.000641  -0.000121  -0.000097  -0.000057
    10  H    0.001531  -0.000231  -0.000014  -0.000111  -0.000046   0.000006
    11  C    0.003108   0.000514  -0.000053   0.007142  -0.000526   0.000015
    12  H   -0.001839   0.000025  -0.000003   0.000440  -0.000039  -0.000006
    13  H   -0.000017   0.000018  -0.000004  -0.000309  -0.000003  -0.000002
    14  O    0.003215  -0.000136  -0.000027  -0.019192   0.000027   0.000012
    15  H    0.001324   0.000013   0.000002   0.004663   0.000008  -0.000002
               7          8          9         10         11         12
     1  Si   0.360781  -0.054765  -0.016442   0.001531   0.003108  -0.001839
     2  O   -0.027744  -0.014604   0.016057  -0.000231   0.000514   0.000025
     3  H    0.001729   0.000777  -0.000641  -0.000014  -0.000053  -0.000003
     4  O   -0.044769  -0.011573  -0.000121  -0.000111   0.007142   0.000440
     5  O   -0.031610  -0.001752  -0.000097  -0.000046  -0.000526  -0.000039
     6  H   -0.000980  -0.000080  -0.000057   0.000006   0.000015  -0.000006
     7  O    7.975473   0.313002  -0.043497  -0.047357  -0.063425   0.007523
     8  C    0.313002   4.743993   0.412236   0.380109   0.247839  -0.036236
     9  H   -0.043497   0.412236   0.681050  -0.047575  -0.057194   0.015259
    10  H   -0.047357   0.380109  -0.047575   0.717787  -0.038565  -0.005772
    11  C   -0.063425   0.247839  -0.057194  -0.038565   4.839591   0.389325
    12  H    0.007523  -0.036236   0.015259  -0.005772   0.389325   0.716324
    13  H    0.006613  -0.021223  -0.007729   0.005407   0.357208  -0.072971
    14  O   -0.000789  -0.070379   0.004128   0.006208   0.322954  -0.045883
    15  H   -0.000778   0.010409  -0.000193  -0.001390  -0.015818  -0.009087
              13         14         15
     1  Si  -0.000017   0.003215   0.001324
     2  O    0.000018  -0.000136   0.000013
     3  H   -0.000004  -0.000027   0.000002
     4  O   -0.000309  -0.019192   0.004663
     5  O   -0.000003   0.000027   0.000008
     6  H   -0.000002   0.000012  -0.000002
     7  O    0.006613  -0.000789  -0.000778
     8  C   -0.021223  -0.070379   0.010409
     9  H   -0.007729   0.004128  -0.000193
    10  H    0.005407   0.006208  -0.001390
    11  C    0.357208   0.322954  -0.015818
    12  H   -0.072971  -0.045883  -0.009087
    13  H    0.767687  -0.050468  -0.009642
    14  O   -0.050468   7.800568   0.287125
    15  H   -0.009642   0.287125   0.622289
 Mulliken charges:
               1
     1  Si   0.682339
     2  O   -0.453383
     3  H    0.162539
     4  O   -0.820208
     5  O   -0.460990
     6  H    0.166829
     7  O   -0.404172
     8  C    0.102249
     9  H    0.044814
    10  H    0.030011
    11  C    0.007884
    12  H    0.042940
    13  H    0.025434
    14  O   -0.237363
    15  H    0.111077
 Sum of Mulliken charges =  -1.00000
 Mulliken charges with hydrogens summed into heavy atoms:
               1
     1  Si   0.682339
     2  O   -0.290844
     4  O   -0.820208
     5  O   -0.294162
     7  O   -0.404172
     8  C    0.177074
    11  C    0.076257
    14  O   -0.126286
 Electronic spatial extent (au):  <R**2>=           1207.3736
 Charge=             -1.0000 electrons
 Dipole moment (field-independent basis, Debye):
    X=             -4.1236    Y=             -3.1464    Z=             -0.7097  Tot=              5.2352
 Quadrupole moment (field-independent basis, Debye-Ang):
   XX=            -57.4323   YY=            -68.0633   ZZ=            -54.8161
   XY=             -0.5665   XZ=              2.5755   YZ=             -2.5480
 Traceless Quadrupole moment (field-independent basis, Debye-Ang):
   XX=              2.6716   YY=             -7.9594   ZZ=              5.2878
   XY=             -0.5665   XZ=              2.5755   YZ=             -2.5480
 Octapole moment (field-independent basis, Debye-Ang**2):
  XXX=            -20.7213  YYY=            -12.2405  ZZZ=             -0.3339  XYY=            -14.1260
  XXY=             18.1559  XXZ=              2.4173  XZZ=             13.1577  YZZ=              8.4415
  YYZ=             -4.2838  XYZ=              0.1062
 Hexadecapole moment (field-independent basis, Debye-Ang**3):
 XXXX=           -988.0170 YYYY=           -353.8579 ZZZZ=           -195.1648 XXXY=            -32.5349
 XXXZ=             24.2837 YYYX=            -42.0745 YYYZ=             -1.4045 ZZZX=              1.1778
 ZZZY=             -3.7940 XXYY=           -201.3416 XXZZ=           -177.2309 YYZZ=            -97.3022
 XXYZ=            -12.8112 YYXZ=             -6.0888 ZZXY=             12.2323
 N-N= 5.126398287046D+02 E-N=-2.807835645119D+03  KE= 7.439088615134D+02
   1 Symmetry operations used in ECPInt.
 ECPInt:  NShTT=    8911 NPrTT=   25186 LenC2=    8527 LenP2D=   19002.
 LDataN:  DoStor=T MaxTD1= 7 Len=  274
 Calling FoFJK, ICntrl=      2127 FMM=F ISym2X=0 I1Cent= 0 IOpClX= 0 NMat=1 NMatS=1 NMatT=0.
 ***** Axes restored to original set *****
 -------------------------------------------------------------------
 Center     Atomic                   Forces (Hartrees/Bohr)
 Number     Number              X              Y              Z
 -------------------------------------------------------------------
      1       14          -0.035956940    0.126269299    0.009586958
      2        8           0.010562537   -0.027720885    0.018676253
      3        1          -0.004291772    0.003387192   -0.006397196
      4        8           0.022657385   -0.048079741   -0.001757796
      5        8           0.028119405   -0.026153764   -0.019649698
      6        1          -0.006343451    0.001603703    0.007715673
      7        8          -0.016907507   -0.031671093   -0.005092022
      8        6           0.014191688    0.007071085   -0.005645350
      9        1          -0.000413079    0.001100453    0.000979981
     10        1          -0.002071578   -0.003157078   -0.000689617
     11        6           0.002964386    0.015692075    0.006120369
     12        1           0.000304735   -0.001280216   -0.002098059
     13        1          -0.003778751   -0.003825205    0.000089915
     14        8          -0.010511968   -0.012500547    0.000536712
     15        1           0.001474908   -0.000735278   -0.002376123
 -------------------------------------------------------------------
 Cartesian Forces:  Max     0.126269299 RMS     0.023869003

 GradGradGradGradGradGradGradGradGradGradGradGradGradGradGradGradGradGrad
 Berny optimization.
 FormGI is forming the generalized inverse of G from B-inverse, IUseBI=4.
 Internal  Forces:  Max     0.052550676 RMS     0.012705798
 Search for a local minimum.
 Step number   1 out of a maximum of   70
 All quantities printed in internal units (Hartrees-Bohrs-Radians)
 Mixed Optimization -- RFO/linear search
 Second derivative matrix not updated -- first step.
 ITU=  0
     Eigenvalues ---    0.00613   0.01373   0.01608   0.03907   0.03916
     Eigenvalues ---    0.04001   0.05017   0.05353   0.06133   0.06153
     Eigenvalues ---    0.11177   0.11602   0.12965   0.13721   0.13980
     Eigenvalues ---    0.14248   0.14449   0.16000   0.16000   0.16000
     Eigenvalues ---    0.21959   0.22058   0.22065   0.22383   0.25000
     Eigenvalues ---    0.31192   0.34253   0.34271   0.34360   0.34537
     Eigenvalues ---    0.41854   0.44587   0.45385   0.45498   0.45716
     Eigenvalues ---    0.46573   0.56442   0.56838   0.56887
 RFO step:  Lambda=-3.67050328D-02 EMin= 6.12685493D-03
 Linear search not attempted -- first point.
 Maximum step size (   0.300) exceeded in Quadratic search.
    -- Step size scaled by   0.981
 Iteration  1 RMS(Cart)=  0.22029607 RMS(Int)=  0.01340466
 Iteration  2 RMS(Cart)=  0.01888602 RMS(Int)=  0.00207290
 Iteration  3 RMS(Cart)=  0.00016023 RMS(Int)=  0.00207014
 Iteration  4 RMS(Cart)=  0.00000081 RMS(Int)=  0.00207014
 Variable       Old X    -DE/DX   Delta X   Delta X   Delta X     New X
                                 (Linear)    (Quad)   (Total)
    R1        3.08401   0.02193   0.00000   0.04375   0.04375   3.12777
    R2        3.08153  -0.05255   0.00000  -0.10437  -0.10437   2.97716
    R3        3.07190   0.02593   0.00000   0.05062   0.05062   3.12252
    R4        3.08531   0.03051   0.00000   0.06101   0.06101   3.14631
    R5        1.80193  -0.00460   0.00000  -0.00745  -0.00745   1.79448
    R6        1.80234  -0.00516   0.00000  -0.00837  -0.00837   1.79397
    R7        2.65758  -0.00382   0.00000  -0.00777  -0.00777   2.64981
    R8        2.06875   0.00090   0.00000   0.00232   0.00232   2.07106
    R9        2.06433   0.00367   0.00000   0.00942   0.00942   2.07375
   R10        2.85648   0.00482   0.00000   0.01357   0.01357   2.87006
   R11        2.06727   0.00196   0.00000   0.00505   0.00505   2.07233
   R12        2.06905   0.00469   0.00000   0.01212   0.01212   2.08117
   R13        2.69110  -0.01426   0.00000  -0.03072  -0.03072   2.66038
   R14        1.80572  -0.00089   0.00000  -0.00145  -0.00145   1.80427
    A1        1.96980   0.00652   0.00000   0.04739   0.04797   2.01777
    A2        1.90389  -0.00851   0.00000  -0.06393  -0.07046   1.83342
    A3        1.84648  -0.01125   0.00000  -0.06607  -0.07306   1.77342
    A4        1.89189   0.00773   0.00000   0.04937   0.05123   1.94312
    A5        1.93558   0.02243   0.00000   0.11907   0.12006   2.05564
    A6        1.91562  -0.01855   0.00000  -0.09534  -0.10074   1.81489
    A7        2.05186  -0.01193   0.00000  -0.05949  -0.05949   1.99237
    A8        2.03745  -0.01501   0.00000  -0.07484  -0.07484   1.96261
    A9        2.18731   0.02429   0.00000   0.08309   0.08309   2.27039
   A10        1.93986  -0.00416   0.00000   0.01105   0.00843   1.94830
   A11        1.88340  -0.00802   0.00000  -0.04759  -0.04583   1.83757
   A12        1.95992   0.02114   0.00000   0.08472   0.08377   2.04369
   A13        1.88055   0.00242   0.00000  -0.00435  -0.00469   1.87586
   A14        1.91132  -0.00313   0.00000   0.00510   0.00268   1.91400
   A15        1.88611  -0.00919   0.00000  -0.05533  -0.05419   1.83193
   A16        1.90631  -0.00411   0.00000  -0.01527  -0.01585   1.89046
   A17        1.89527  -0.00308   0.00000  -0.01876  -0.01876   1.87652
   A18        1.91017   0.00962   0.00000   0.03961   0.03953   1.94970
   A19        1.90106   0.00079   0.00000  -0.00680  -0.00708   1.89398
   A20        1.92930   0.00051   0.00000   0.01933   0.01921   1.94851
   A21        1.92130  -0.00386   0.00000  -0.01906  -0.01876   1.90254
   A22        1.90680  -0.00204   0.00000  -0.01015  -0.01015   1.89665
    D1       -0.81646   0.00659   0.00000   0.04391   0.04417  -0.77229
    D2        1.28754   0.01470   0.00000   0.09286   0.08926   1.37680
    D3       -2.93601  -0.01744   0.00000  -0.08698  -0.08364  -3.01965
    D4       -2.76601  -0.01070   0.00000  -0.05524  -0.05087  -2.81689
    D5       -0.61488  -0.00312   0.00000  -0.00574  -0.00572  -0.62060
    D6        1.50152   0.01787   0.00000   0.11280   0.10840   1.60993
    D7        0.92291   0.00937   0.00000   0.03262   0.02837   0.95128
    D8       -1.21857  -0.00446   0.00000  -0.05234  -0.05319  -1.27176
    D9        2.97470  -0.01627   0.00000  -0.12745  -0.12235   2.85235
   D10       -0.51803   0.00056   0.00000   0.05336   0.05268  -0.46536
   D11       -2.57641   0.00488   0.00000   0.08132   0.08096  -2.49545
   D12        1.62989   0.00880   0.00000   0.12991   0.13095   1.76084
   D13        0.88424  -0.00325   0.00000  -0.06850  -0.06950   0.81474
   D14        2.95528  -0.00646   0.00000  -0.09637  -0.09707   2.85822
   D15       -1.23011  -0.00729   0.00000  -0.10732  -0.10823  -1.33833
   D16        3.04812   0.00396   0.00000   0.00910   0.00934   3.05746
   D17       -1.16402   0.00076   0.00000  -0.01876  -0.01823  -1.18224
   D18        0.93378  -0.00007   0.00000  -0.02972  -0.02939   0.90439
   D19       -1.19106  -0.00005   0.00000  -0.02456  -0.02419  -1.21525
   D20        0.87999  -0.00325   0.00000  -0.05243  -0.05176   0.82823
   D21        2.97778  -0.00408   0.00000  -0.06339  -0.06292   2.91486
   D22        3.09052  -0.00090   0.00000  -0.01812  -0.01770   3.07282
   D23        0.99016  -0.00229   0.00000  -0.03672  -0.03716   0.95300
   D24       -1.11086  -0.00109   0.00000  -0.02831  -0.02829  -1.13915
         Item               Value     Threshold  Converged?
 Maximum Force            0.052551     0.000450     NO 
 RMS     Force            0.012706     0.000300     NO 
 Maximum Displacement     0.812937     0.001800     NO 
 RMS     Displacement     0.219289     0.001200     NO 
 Predicted change in Energy=-2.173961D-02
 GradGradGradGradGradGradGradGradGradGradGradGradGradGradGradGradGradGrad

                          Input orientation:                          
 ---------------------------------------------------------------------
 Center     Atomic      Atomic             Coordinates (Angstroms)
 Number     Number       Type             X           Y           Z
 ---------------------------------------------------------------------
      1         14           0        1.157028    0.153784    0.027904
      2          8           0        1.505996   -0.654181    1.429657
      3          1           0        2.163401   -0.231087    1.968677
      4          8           0        0.978350    1.712874    0.166977
      5          8           0        2.393917   -0.220001   -1.002000
      6          1           0        2.460119    0.390735   -1.725766
      7          8           0       -0.131063   -0.726038   -0.554180
      8          6           0       -1.345771   -1.062709    0.060116
      9          1           0       -1.250378   -1.098335    1.151334
     10          1           0       -1.572030   -2.079763   -0.284349
     11          6           0       -2.564477   -0.239849   -0.319773
     12          1           0       -2.590065   -0.145976   -1.412077
     13          1           0       -3.456171   -0.799133    0.004198
     14          8           0       -2.559370    1.019442    0.309583
     15          1           0       -3.307788    1.521637   -0.005501
 ---------------------------------------------------------------------
                    Distance matrix (angstroms):
                    1          2          3          4          5
     1  Si   0.000000
     2  O    1.655143   0.000000
     3  H    2.219800   0.949596   0.000000
     4  O    1.575446   2.734177   2.903353   0.000000
     5  O    1.652365   2.624857   2.979628   2.665772   0.000000
     6  H    2.197624   3.458165   3.758140   2.743386   0.949326
     7  O    1.664958   2.573079   3.445917   2.774735   2.613836
     8  C    2.782965   3.189845   4.080256   3.621715   3.977877
     9  H    2.936920   2.805768   3.615806   3.720092   4.323101
    10  H    3.540338   3.800572   4.737845   4.592628   4.438746
    11  C    3.758381   4.449824   5.252610   4.074516   5.005147
    12  H    4.025433   5.011132   5.833711   4.322305   5.001371
    13  H    4.710650   5.164887   5.980088   5.099183   5.964173
    14  O    3.826268   4.536826   5.159553   3.607860   5.271766
    15  H    4.669767   5.474156   6.074811   4.293868   6.044481
                    6          7          8          9         10
     6  H    0.000000
     7  O    3.055163   0.000000
     8  C    4.448221   1.402220   0.000000
     9  H    4.925731   2.073704   1.095959   0.000000
    10  H    4.943609   1.995436   1.097382   1.768572   0.000000
    11  C    5.255571   2.492555   1.518769   2.151282   2.090810
    12  H    5.088302   2.668174   2.134483   3.045132   2.459207
    13  H    6.277823   3.372459   2.127532   2.504190   2.296358
    14  O    5.452815   3.112790   2.422893   2.628115   3.306458
    15  H    6.124296   3.929971   3.245406   3.526394   4.007579
                   11         12         13         14         15
    11  C    0.000000
    12  H    1.096629   0.000000
    13  H    1.101306   1.783982   0.000000
    14  O    1.407810   2.079243   2.050543   0.000000
    15  H    1.937553   2.296631   2.325529   0.954781   0.000000
 Stoichiometry    C2H7O5Si(1-)
 Framework group  C1[X(C2H7O5Si)]
 Deg. of freedom    39
 Full point group                 C1      NOp   1
 Largest Abelian subgroup         C1      NOp   1
 Largest concise Abelian subgroup C1      NOp   1
                         Standard orientation:                         
 ---------------------------------------------------------------------
 Center     Atomic      Atomic             Coordinates (Angstroms)
 Number     Number       Type             X           Y           Z
 ---------------------------------------------------------------------
      1         14           0        1.119584    0.146024   -0.003504
      2          8           0        1.480114   -0.592284    1.433304
      3          1           0        2.138486   -0.140926    1.947652
      4          8           0        0.934318    1.709177    0.061769
      5          8           0        2.352507   -0.271171   -1.021424
      6          1           0        2.411819    0.304472   -1.773977
      7          8           0       -0.167538   -0.766403   -0.535365
      8          6           0       -1.377226   -1.078657    0.101327
      9          1           0       -1.275630   -1.061530    1.192432
     10          1           0       -1.600582   -2.112045   -0.192728
     11          6           0       -2.601887   -0.280379   -0.310517
     12          1           0       -2.633961   -0.239068   -1.405898
     13          1           0       -3.489125   -0.827461    0.044991
     14          8           0       -2.599245    1.007633    0.257769
     15          1           0       -3.351758    1.490816   -0.076694
 ---------------------------------------------------------------------
 Rotational constants (GHZ):           2.9680264           1.0169827           0.9475350
 Standard basis: def2TZVPP (5D, 7F)
 There are   405 symmetry adapted cartesian basis functions of A   symmetry.
 There are   357 symmetry adapted basis functions of A   symmetry.
   357 basis functions,   545 primitive gaussians,   405 cartesian basis functions
    37 alpha electrons       37 beta electrons
       nuclear repulsion energy       501.3042465766 Hartrees.
 NAtoms=   15 NActive=   15 NUniq=   15 SFac= 1.00D+00 NAtFMM=   60 NAOKFM=F Big=F
 Integral buffers will be    131072 words long.
 Raffenetti 2 integral format.
 Two-electron integral symmetry is turned on.
 Nuclear repulsion after empirical dispersion term =      501.2979955883 Hartrees.
 One-electron integrals computed using PRISM.
   1 Symmetry operations used in ECPInt.
 ECPInt:  NShTT=    8911 NPrTT=   25186 LenC2=    8447 LenP2D=   18701.
 LDataN:  DoStor=T MaxTD1= 6 Len=  172
 NBasis=   357 RedAO= T EigKep=  2.99D-04  NBF=   357
 NBsUse=   357 1.00D-06 EigRej= -1.00D+00 NBFU=   357
 Initial guess from the checkpoint file:  "1QmonoL_opt.chk"
 B after Tr=    -0.000000    0.000000   -0.000000
         Rot=    0.999553    0.029700   -0.002813    0.002132 Ang=   3.43 deg.
 ExpMin= 7.01D-02 ExpMax= 4.48D+04 ExpMxC= 1.53D+03 IAcc=3 IRadAn=         5 AccDes= 0.00D+00
 Harris functional with IExCor= 4639 and IRadAn=       5 diagonalized for initial guess.
 HarFok:  IExCor= 4639 AccDes= 0.00D+00 IRadAn=         5 IDoV= 1 UseB2=F ITyADJ=14
 ICtDFT=  3500011 ScaDFX=  1.000000  1.000000  1.000000  1.000000
 FoFCou: FMM=F IPFlag=           0 FMFlag=      100000 FMFlg1=           0
         NFxFlg=           0 DoJE=T BraDBF=F KetDBF=T FulRan=T
         wScrn=  0.000000 ICntrl=       500 IOpCl=  0 I1Cent=   200000004 NGrid=           0
         NMat0=    1 NMatS0=      1 NMatT0=    0 NMatD0=    1 NMtDS0=    0 NMtDT0=    0
 Petite list used in FoFCou.
 Requested convergence on RMS density matrix=1.00D-08 within 128 cycles.
 Requested convergence on MAX density matrix=1.00D-06.
 Requested convergence on             energy=1.00D-06.
 No special actions if energy rises.
 Integral accuracy reduced to 1.0D-05 until final iterations.
 Initial convergence to 1.0D-05 achieved.  Increase integral accuracy.
 SCF Done:  E(RwB97XD) =  -746.315768539     A.U. after   14 cycles
            NFock= 14  Conv=0.63D-08     -V/T= 2.0033
   1 Symmetry operations used in ECPInt.
 ECPInt:  NShTT=    8911 NPrTT=   25186 LenC2=    8447 LenP2D=   18701.
 LDataN:  DoStor=T MaxTD1= 7 Len=  274
 Calling FoFJK, ICntrl=      2127 FMM=F ISym2X=0 I1Cent= 0 IOpClX= 0 NMat=1 NMatS=1 NMatT=0.
 ***** Axes restored to original set *****
 -------------------------------------------------------------------
 Center     Atomic                   Forces (Hartrees/Bohr)
 Number     Number              X              Y              Z
 -------------------------------------------------------------------
      1       14          -0.009759784    0.053249342    0.006871808
      2        8           0.001068597   -0.016373617    0.008389910
      3        1           0.000113039    0.004676777   -0.000097555
      4        8           0.001021577   -0.021866730   -0.001860823
      5        8           0.010597220   -0.017711145   -0.009294300
      6        1          -0.001264747    0.005040411    0.000530738
      7        8          -0.017885431   -0.003915576   -0.002696124
      8        6           0.013993139   -0.004224855   -0.004368150
      9        1          -0.000223734    0.002003272    0.000533365
     10        1          -0.002839235   -0.002543446    0.003013130
     11        6           0.002890182    0.001853510    0.000403051
     12        1           0.000065537    0.000864148   -0.000592858
     13        1           0.000971815   -0.003275477   -0.001784846
     14        8          -0.000224719    0.001580847    0.001952089
     15        1           0.001476545    0.000642539   -0.000999436
 -------------------------------------------------------------------
 Cartesian Forces:  Max     0.053249342 RMS     0.010543936

 GradGradGradGradGradGradGradGradGradGradGradGradGradGradGradGradGradGrad
 Berny optimization.
 Using GEDIIS/GDIIS optimizer.
 FormGI is forming the generalized inverse of G from B-inverse, IUseBI=4.
 Internal  Forces:  Max     0.021920396 RMS     0.005390754
 Search for a local minimum.
 Step number   2 out of a maximum of   70
 All quantities printed in internal units (Hartrees-Bohrs-Radians)
 Mixed Optimization -- RFO/linear search
 Update second derivatives using D2CorX and points    1    2
 DE= -2.02D-02 DEPred=-2.17D-02 R= 9.30D-01
 TightC=F SS=  1.41D+00  RLast= 4.53D-01 DXNew= 5.0454D-01 1.3584D+00
 Trust test= 9.30D-01 RLast= 4.53D-01 DXMaxT set to 5.05D-01
 ITU=  1  0
 Use linear search instead of GDIIS.
     Eigenvalues ---    0.00634   0.01373   0.01683   0.03893   0.03923
     Eigenvalues ---    0.03991   0.04775   0.05214   0.06236   0.06239
     Eigenvalues ---    0.11028   0.11607   0.12323   0.13410   0.13876
     Eigenvalues ---    0.14194   0.14344   0.15889   0.16000   0.16013
     Eigenvalues ---    0.21262   0.21802   0.22078   0.23725   0.28652
     Eigenvalues ---    0.31592   0.34212   0.34273   0.34348   0.34487
     Eigenvalues ---    0.37827   0.42313   0.45156   0.45542   0.46175
     Eigenvalues ---    0.47113   0.56441   0.56866   0.57215
 RFO step:  Lambda=-9.71174355D-03 EMin= 6.33931491D-03
 Quartic linear search produced a step of  0.38944.
 Iteration  1 RMS(Cart)=  0.06529997 RMS(Int)=  0.00377908
 Iteration  2 RMS(Cart)=  0.00387627 RMS(Int)=  0.00186598
 Iteration  3 RMS(Cart)=  0.00001229 RMS(Int)=  0.00186594
 Iteration  4 RMS(Cart)=  0.00000006 RMS(Int)=  0.00186594
 Variable       Old X    -DE/DX   Delta X   Delta X   Delta X     New X
                                 (Linear)    (Quad)   (Total)
    R1        3.12777   0.01298   0.01704   0.03097   0.04801   3.17577
    R2        2.97716  -0.02192  -0.04065  -0.04700  -0.08765   2.88951
    R3        3.12252   0.01531   0.01971   0.03566   0.05537   3.17789
    R4        3.14631   0.00667   0.02376   0.00967   0.03342   3.17974
    R5        1.79448   0.00211  -0.00290   0.00620   0.00330   1.79778
    R6        1.79397   0.00275  -0.00326   0.00788   0.00462   1.79858
    R7        2.64981  -0.01402  -0.00302  -0.04071  -0.04373   2.60608
    R8        2.07106   0.00045   0.00090   0.00136   0.00226   2.07333
    R9        2.07375   0.00200   0.00367   0.00618   0.00985   2.08360
   R10        2.87006  -0.00300   0.00529  -0.01482  -0.00954   2.86052
   R11        2.07233   0.00066   0.00197   0.00176   0.00373   2.07606
   R12        2.08117   0.00035   0.00472  -0.00055   0.00417   2.08533
   R13        2.66038   0.00242  -0.01196   0.01268   0.00071   2.66109
   R14        1.80427  -0.00049  -0.00056  -0.00092  -0.00149   1.80279
    A1        2.01777   0.00273   0.01868   0.02363   0.04275   2.06052
    A2        1.83342  -0.00279  -0.02744  -0.01773  -0.05112   1.78230
    A3        1.77342  -0.00407  -0.02845  -0.03265  -0.06672   1.70670
    A4        1.94312   0.00609   0.01995   0.04669   0.06775   2.01087
    A5        2.05564   0.00288   0.04676   0.00877   0.05663   2.11227
    A6        1.81489  -0.00689  -0.03923  -0.04232  -0.08606   1.72882
    A7        1.99237  -0.00630  -0.02317  -0.04259  -0.06576   1.92661
    A8        1.96261  -0.00673  -0.02914  -0.04397  -0.07312   1.88950
    A9        2.27039  -0.00650   0.03236  -0.04660  -0.01425   2.25615
   A10        1.94830   0.00384   0.00328   0.00841   0.00965   1.95794
   A11        1.83757   0.00551  -0.01785   0.06585   0.04885   1.88642
   A12        2.04369  -0.01092   0.03262  -0.07901  -0.04690   1.99678
   A13        1.87586  -0.00118  -0.00183  -0.00022  -0.00248   1.87338
   A14        1.91400   0.00167   0.00104  -0.00974  -0.01005   1.90395
   A15        1.83193   0.00174  -0.02110   0.02563   0.00553   1.83745
   A16        1.89046   0.00039  -0.00617  -0.00251  -0.00900   1.88146
   A17        1.87652  -0.00167  -0.00730  -0.01252  -0.01993   1.85658
   A18        1.94970  -0.00144   0.01540  -0.01294   0.00245   1.95216
   A19        1.89398  -0.00021  -0.00276  -0.00502  -0.00819   1.88579
   A20        1.94851  -0.00004   0.00748  -0.00571   0.00171   1.95022
   A21        1.90254   0.00291  -0.00731   0.03826   0.03111   1.93365
   A22        1.89665   0.00055  -0.00395   0.00582   0.00187   1.89852
    D1       -0.77229  -0.00048   0.01720   0.01398   0.03116  -0.74113
    D2        1.37680   0.00695   0.03476   0.07534   0.10667   1.48347
    D3       -3.01965  -0.00276  -0.03257   0.01285  -0.01626  -3.03591
    D4       -2.81689  -0.00303  -0.01981   0.00139  -0.01438  -2.83127
    D5       -0.62060   0.00219  -0.00223   0.04728   0.04538  -0.57521
    D6        1.60993   0.00478   0.04222   0.05791   0.09575   1.70568
    D7        0.95128   0.00189   0.01105  -0.00826  -0.00192   0.94936
    D8       -1.27176  -0.00024  -0.02072  -0.01823  -0.03931  -1.31108
    D9        2.85235  -0.00455  -0.04765  -0.05101  -0.09359   2.75876
   D10       -0.46536   0.00300   0.02051   0.07766   0.09826  -0.36710
   D11       -2.49545  -0.00070   0.03153   0.03568   0.06638  -2.42907
   D12        1.76084  -0.00070   0.05100   0.00109   0.05282   1.81366
   D13        0.81474   0.00092  -0.02707  -0.03117  -0.05897   0.75577
   D14        2.85822  -0.00001  -0.03780  -0.04506  -0.08331   2.77491
   D15       -1.33833   0.00165  -0.04215  -0.01371  -0.05650  -1.39483
   D16        3.05746  -0.00149   0.00364  -0.09661  -0.09270   2.96476
   D17       -1.18224  -0.00242  -0.00710  -0.11050  -0.11704  -1.29928
   D18        0.90439  -0.00077  -0.01144  -0.07915  -0.09023   0.81416
   D19       -1.21525  -0.00118  -0.00942  -0.08804  -0.09738  -1.31263
   D20        0.82823  -0.00211  -0.02016  -0.10193  -0.12171   0.70651
   D21        2.91486  -0.00045  -0.02450  -0.07057  -0.09491   2.81996
   D22        3.07282  -0.00085  -0.00689  -0.06963  -0.07641   2.99641
   D23        0.95300  -0.00031  -0.01447  -0.05318  -0.06777   0.88523
   D24       -1.13915  -0.00193  -0.01102  -0.06844  -0.07945  -1.21860
         Item               Value     Threshold  Converged?
 Maximum Force            0.021920     0.000450     NO 
 RMS     Force            0.005391     0.000300     NO 
 Maximum Displacement     0.149940     0.001800     NO 
 RMS     Displacement     0.067081     0.001200     NO 
 Predicted change in Energy=-4.728438D-03
 GradGradGradGradGradGradGradGradGradGradGradGradGradGradGradGradGradGrad

                          Input orientation:                          
 ---------------------------------------------------------------------
 Center     Atomic      Atomic             Coordinates (Angstroms)
 Number     Number       Type             X           Y           Z
 ---------------------------------------------------------------------
      1         14           0        1.137116    0.233129    0.038112
      2          8           0        1.463578   -0.701859    1.395851
      3          1           0        2.132242   -0.287323    1.930737
      4          8           0        1.025799    1.747546    0.217512
      5          8           0        2.327450   -0.275544   -1.035366
      6          1           0        2.405968    0.376345   -1.724380
      7          8           0       -0.155309   -0.667417   -0.553455
      8          6           0       -1.319386   -1.045271    0.082163
      9          1           0       -1.221089   -1.022151    1.174663
     10          1           0       -1.544256   -2.085641   -0.205549
     11          6           0       -2.540267   -0.246872   -0.322019
     12          1           0       -2.517998   -0.128924   -1.414044
     13          1           0       -3.416437   -0.865625   -0.062781
     14          8           0       -2.594487    0.996972    0.335934
     15          1           0       -3.301225    1.514035   -0.042578
 ---------------------------------------------------------------------
                    Distance matrix (angstroms):
                    1          2          3          4          5
     1  Si   0.000000
     2  O    1.680547   0.000000
     3  H    2.200722   0.951343   0.000000
     4  O    1.529064   2.753129   2.880981   0.000000
     5  O    1.681665   2.615117   2.972543   2.712359   0.000000
     6  H    2.176436   3.433142   3.724951   2.748819   0.951769
     7  O    1.682645   2.534123   3.398319   2.796686   2.559276
     8  C    2.769593   3.096546   3.988163   3.649389   3.891114
     9  H    2.903206   2.712738   3.515174   3.692678   4.246620
    10  H    3.553282   3.677825   4.616741   4.634380   4.353752
    11  C    3.726021   4.380510   5.187377   4.121362   4.919792
    12  H    3.949645   4.906803   5.730391   4.329159   4.862434
    13  H    4.685326   5.095977   5.924220   5.161462   5.855456
    14  O    3.820603   4.525190   5.151192   3.699169   5.265475
    15  H    4.620184   5.448176   6.054868   4.341118   5.989174
                    6          7          8          9         10
     6  H    0.000000
     7  O    3.003438   0.000000
     8  C    4.377539   1.379079   0.000000
     9  H    4.849307   2.061096   1.097157   0.000000
    10  H    4.896170   2.015334   1.102594   1.772126   0.000000
    11  C    5.178827   2.432786   1.513722   2.140408   2.094439
    12  H    4.959540   2.571553   2.124853   3.030055   2.497473
    13  H    6.180922   3.303787   2.109717   2.524940   2.239170
    14  O    5.443769   3.083958   2.420959   2.581966   3.301317
    15  H    6.057627   3.862191   3.239336   3.498698   4.008886
                   11         12         13         14         15
    11  C    0.000000
    12  H    1.098602   0.000000
    13  H    1.103510   1.782087   0.000000
    14  O    1.408187   2.082287   2.074571   0.000000
    15  H    1.938540   2.278965   2.382533   0.953994   0.000000
 Stoichiometry    C2H7O5Si(1-)
 Framework group  C1[X(C2H7O5Si)]
 Deg. of freedom    39
 Full point group                 C1      NOp   1
 Largest Abelian subgroup         C1      NOp   1
 Largest concise Abelian subgroup C1      NOp   1
                         Standard orientation:                         
 ---------------------------------------------------------------------
 Center     Atomic      Atomic             Coordinates (Angstroms)
 Number     Number       Type             X           Y           Z
 ---------------------------------------------------------------------
      1         14           0        1.111845    0.209633   -0.000773
      2          8           0        1.440027   -0.621437    1.422553
      3          1           0        2.108830   -0.167799    1.924517
      4          8           0        0.999631    1.733136    0.065438
      5          8           0        2.301677   -0.376829   -1.034389
      6          1           0        2.379199    0.221984   -1.770104
      7          8           0       -0.180429   -0.733277   -0.522541
      8          6           0       -1.343742   -1.063473    0.140433
      9          1           0       -1.244594   -0.958993    1.228095
     10          1           0       -1.568125   -2.122521   -0.068810
     11          6           0       -2.565491   -0.298157   -0.321058
     12          1           0       -2.544170   -0.261851   -1.418853
     13          1           0       -3.441030   -0.896433   -0.015720
     14          8           0       -2.620043    0.991200    0.242480
     15          1           0       -3.327437    1.478195   -0.172893
 ---------------------------------------------------------------------
 Rotational constants (GHZ):           2.9383307           1.0321067           0.9567791
 Standard basis: def2TZVPP (5D, 7F)
 There are   405 symmetry adapted cartesian basis functions of A   symmetry.
 There are   357 symmetry adapted basis functions of A   symmetry.
   357 basis functions,   545 primitive gaussians,   405 cartesian basis functions
    37 alpha electrons       37 beta electrons
       nuclear repulsion energy       502.7017132321 Hartrees.
 NAtoms=   15 NActive=   15 NUniq=   15 SFac= 1.00D+00 NAtFMM=   60 NAOKFM=F Big=F
 Integral buffers will be    131072 words long.
 Raffenetti 2 integral format.
 Two-electron integral symmetry is turned on.
 Nuclear repulsion after empirical dispersion term =      502.6954372652 Hartrees.
 One-electron integrals computed using PRISM.
   1 Symmetry operations used in ECPInt.
 ECPInt:  NShTT=    8911 NPrTT=   25186 LenC2=    8459 LenP2D=   18752.
 LDataN:  DoStor=T MaxTD1= 6 Len=  172
 NBasis=   357 RedAO= T EigKep=  2.98D-04  NBF=   357
 NBsUse=   357 1.00D-06 EigRej= -1.00D+00 NBFU=   357
 Initial guess from the checkpoint file:  "1QmonoL_opt.chk"
 B after Tr=     0.000000   -0.000000    0.000000
         Rot=    0.999972    0.007056    0.000487    0.002424 Ang=   0.86 deg.
 ExpMin= 7.01D-02 ExpMax= 4.48D+04 ExpMxC= 1.53D+03 IAcc=3 IRadAn=         5 AccDes= 0.00D+00
 Harris functional with IExCor= 4639 and IRadAn=       5 diagonalized for initial guess.
 HarFok:  IExCor= 4639 AccDes= 0.00D+00 IRadAn=         5 IDoV= 1 UseB2=F ITyADJ=14
 ICtDFT=  3500011 ScaDFX=  1.000000  1.000000  1.000000  1.000000
 FoFCou: FMM=F IPFlag=           0 FMFlag=      100000 FMFlg1=           0
         NFxFlg=           0 DoJE=T BraDBF=F KetDBF=T FulRan=T
         wScrn=  0.000000 ICntrl=       500 IOpCl=  0 I1Cent=   200000004 NGrid=           0
         NMat0=    1 NMatS0=      1 NMatT0=    0 NMatD0=    1 NMtDS0=    0 NMtDT0=    0
 Petite list used in FoFCou.
 Requested convergence on RMS density matrix=1.00D-08 within 128 cycles.
 Requested convergence on MAX density matrix=1.00D-06.
 Requested convergence on             energy=1.00D-06.
 No special actions if energy rises.
 Integral accuracy reduced to 1.0D-05 until final iterations.
 Initial convergence to 1.0D-05 achieved.  Increase integral accuracy.
 SCF Done:  E(RwB97XD) =  -746.320193090     A.U. after   13 cycles
            NFock= 13  Conv=0.79D-08     -V/T= 2.0031
   1 Symmetry operations used in ECPInt.
 ECPInt:  NShTT=    8911 NPrTT=   25186 LenC2=    8459 LenP2D=   18752.
 LDataN:  DoStor=T MaxTD1= 7 Len=  274
 Calling FoFJK, ICntrl=      2127 FMM=F ISym2X=0 I1Cent= 0 IOpClX= 0 NMat=1 NMatS=1 NMatT=0.
 ***** Axes restored to original set *****
 -------------------------------------------------------------------
 Center     Atomic                   Forces (Hartrees/Bohr)
 Number     Number              X              Y              Z
 -------------------------------------------------------------------
      1       14           0.000261413   -0.021508329   -0.000289010
      2        8           0.001320277   -0.001021556    0.003251784
      3        1           0.000475750    0.002076942    0.002838952
      4        8          -0.001312914    0.014493727    0.000675257
      5        8           0.001419425   -0.000112579   -0.002390655
      6        1           0.002304860    0.002725609   -0.001499680
      7        8          -0.004468274    0.004376663   -0.005420572
      8        6           0.003788300   -0.000801769    0.000400502
      9        1          -0.000412479    0.000246043    0.000799329
     10        1           0.000617943   -0.000079494    0.001828117
     11        6          -0.003008859   -0.004371533   -0.002033803
     12        1          -0.000043292    0.001060065    0.001020933
     13        1          -0.001381654    0.002151531   -0.000334852
     14        8          -0.000651687   -0.000132500    0.002324754
     15        1           0.001091191    0.000897180   -0.001171058
 -------------------------------------------------------------------
 Cartesian Forces:  Max     0.021508329 RMS     0.004377444

 GradGradGradGradGradGradGradGradGradGradGradGradGradGradGradGradGradGrad
 Berny optimization.
 Using GEDIIS/GDIIS optimizer.
 FormGI is forming the generalized inverse of G from B-inverse, IUseBI=4.
 Internal  Forces:  Max     0.014529007 RMS     0.002927543
 Search for a local minimum.
 Step number   3 out of a maximum of   70
 All quantities printed in internal units (Hartrees-Bohrs-Radians)
 Mixed Optimization -- RFO/linear search
 Update second derivatives using D2CorX and points    2    3
 DE= -4.42D-03 DEPred=-4.73D-03 R= 9.36D-01
 TightC=F SS=  1.41D+00  RLast= 4.49D-01 DXNew= 8.4853D-01 1.3482D+00
 Trust test= 9.36D-01 RLast= 4.49D-01 DXMaxT set to 8.49D-01
 ITU=  1  1  0
 Use linear search instead of GDIIS.
     Eigenvalues ---    0.00592   0.01313   0.01588   0.03646   0.03924
     Eigenvalues ---    0.03980   0.05038   0.05371   0.06290   0.06359
     Eigenvalues ---    0.11312   0.11739   0.12937   0.13288   0.13615
     Eigenvalues ---    0.14121   0.14791   0.16003   0.16009   0.16400
     Eigenvalues ---    0.20861   0.21424   0.22220   0.23852   0.28435
     Eigenvalues ---    0.31732   0.34206   0.34276   0.34368   0.34509
     Eigenvalues ---    0.38155   0.42256   0.45148   0.45963   0.46735
     Eigenvalues ---    0.49512   0.56442   0.56865   0.57150
 RFO step:  Lambda=-1.84155603D-03 EMin= 5.91767729D-03
 Quartic linear search produced a step of -0.17159.
 Iteration  1 RMS(Cart)=  0.02755543 RMS(Int)=  0.00079572
 Iteration  2 RMS(Cart)=  0.00092604 RMS(Int)=  0.00009441
 Iteration  3 RMS(Cart)=  0.00000111 RMS(Int)=  0.00009440
 Iteration  4 RMS(Cart)=  0.00000000 RMS(Int)=  0.00009440
 Variable       Old X    -DE/DX   Delta X   Delta X   Delta X     New X
                                 (Linear)    (Quad)   (Total)
    R1        3.17577   0.00468  -0.00824   0.01659   0.00835   3.18412
    R2        2.88951   0.01453   0.01504   0.01183   0.02687   2.91638
    R3        3.17789   0.00433  -0.00950   0.01703   0.00753   3.18542
    R4        3.17974   0.00255  -0.00574   0.00908   0.00334   3.18308
    R5        1.79778   0.00284  -0.00057   0.00505   0.00448   1.80226
    R6        1.79858   0.00314  -0.00079   0.00580   0.00500   1.80359
    R7        2.60608   0.00159   0.00750  -0.00586   0.00165   2.60773
    R8        2.07333   0.00077  -0.00039   0.00220   0.00181   2.07514
    R9        2.08360  -0.00053  -0.00169   0.00045  -0.00124   2.08236
   R10        2.86052   0.00307   0.00164   0.00549   0.00713   2.86765
   R11        2.07606  -0.00090  -0.00064  -0.00155  -0.00219   2.07387
   R12        2.08533  -0.00019  -0.00071  -0.00004  -0.00075   2.08458
   R13        2.66109   0.00120  -0.00012   0.00368   0.00356   2.66465
   R14        1.80279   0.00014   0.00026  -0.00004   0.00021   1.80300
    A1        2.06052  -0.00269  -0.00734  -0.00689  -0.01422   2.04630
    A2        1.78230   0.00360   0.00877   0.01066   0.01976   1.80206
    A3        1.70670   0.00435   0.01145   0.01095   0.02264   1.72934
    A4        2.01087  -0.00309  -0.01163  -0.00397  -0.01562   1.99525
    A5        2.11227  -0.00406  -0.00972  -0.01211  -0.02193   2.09034
    A6        1.72882   0.00444   0.01477   0.00733   0.02225   1.75108
    A7        1.92661   0.00046   0.01128  -0.00986   0.00143   1.92804
    A8        1.88950   0.00148   0.01255  -0.00583   0.00672   1.89621
    A9        2.25615  -0.00506   0.00244  -0.02229  -0.01984   2.23630
   A10        1.95794   0.00055  -0.00166   0.00354   0.00203   1.95997
   A11        1.88642   0.00014  -0.00838   0.01489   0.00648   1.89291
   A12        1.99678  -0.00077   0.00805  -0.01433  -0.00626   1.99052
   A13        1.87338  -0.00070   0.00043  -0.00749  -0.00700   1.86638
   A14        1.90395  -0.00049   0.00172  -0.00653  -0.00474   1.89921
   A15        1.83745   0.00132  -0.00095   0.01103   0.01000   1.84745
   A16        1.88146   0.00038   0.00154  -0.00251  -0.00110   1.88036
   A17        1.85658   0.00421   0.00342   0.02397   0.02740   1.88398
   A18        1.95216  -0.00312  -0.00042  -0.01323  -0.01368   1.93847
   A19        1.88579  -0.00065   0.00141  -0.00023   0.00112   1.88690
   A20        1.95022   0.00038  -0.00029  -0.00752  -0.00791   1.94231
   A21        1.93365  -0.00093  -0.00534   0.00126  -0.00400   1.92964
   A22        1.89852   0.00030  -0.00032   0.00220   0.00188   1.90040
    D1       -0.74113   0.00101  -0.00535   0.02999   0.02467  -0.71646
    D2        1.48347  -0.00189  -0.01830   0.02899   0.01078   1.49425
    D3       -3.03591   0.00445   0.00279   0.04122   0.04389  -2.99202
    D4       -2.83127   0.00421   0.00247   0.03959   0.04191  -2.78936
    D5       -0.57521   0.00152  -0.00779   0.03645   0.02860  -0.54661
    D6        1.70568  -0.00214  -0.01643   0.02425   0.00804   1.71372
    D7        0.94936  -0.00317   0.00033  -0.02990  -0.02932   0.92003
    D8       -1.31108  -0.00070   0.00675  -0.02223  -0.01548  -1.32656
    D9        2.75876   0.00219   0.01606  -0.01546   0.00035   2.75912
   D10       -0.36710   0.00065  -0.01686   0.05859   0.04167  -0.32542
   D11       -2.42907   0.00109  -0.01139   0.05624   0.04496  -2.38411
   D12        1.81366  -0.00019  -0.00906   0.04096   0.03183   1.84549
   D13        0.75577  -0.00082   0.01012  -0.06426  -0.05411   0.70166
   D14        2.77491   0.00070   0.01429  -0.05381  -0.03944   2.73547
   D15       -1.39483   0.00045   0.00969  -0.04453  -0.03485  -1.42968
   D16        2.96476  -0.00108   0.01591  -0.07588  -0.06001   2.90476
   D17       -1.29928   0.00044   0.02008  -0.06543  -0.04534  -1.34462
   D18        0.81416   0.00019   0.01548  -0.05616  -0.04074   0.77342
   D19       -1.31263  -0.00144   0.01671  -0.08194  -0.06524  -1.37787
   D20        0.70651   0.00008   0.02088  -0.07149  -0.05057   0.65595
   D21        2.81996  -0.00017   0.01628  -0.06222  -0.04597   2.77398
   D22        2.99641  -0.00240   0.01311  -0.09168  -0.07852   2.91789
   D23        0.88523  -0.00096   0.01163  -0.07380  -0.06224   0.82299
   D24       -1.21860   0.00025   0.01363  -0.06929  -0.05565  -1.27425
         Item               Value     Threshold  Converged?
 Maximum Force            0.014529     0.000450     NO 
 RMS     Force            0.002928     0.000300     NO 
 Maximum Displacement     0.076253     0.001800     NO 
 RMS     Displacement     0.027517     0.001200     NO 
 Predicted change in Energy=-1.144704D-03
 GradGradGradGradGradGradGradGradGradGradGradGradGradGradGradGradGradGrad

                          Input orientation:                          
 ---------------------------------------------------------------------
 Center     Atomic      Atomic             Coordinates (Angstroms)
 Number     Number       Type             X           Y           Z
 ---------------------------------------------------------------------
      1         14           0        1.134495    0.205207    0.024538
      2          8           0        1.465929   -0.711105    1.399176
      3          1           0        2.112052   -0.271079    1.945503
      4          8           0        1.006164    1.732234    0.207394
      5          8           0        2.341291   -0.265802   -1.053982
      6          1           0        2.429709    0.406549   -1.725576
      7          8           0       -0.168409   -0.677597   -0.575748
      8          6           0       -1.321274   -1.050805    0.084464
      9          1           0       -1.210683   -1.002210    1.175915
     10          1           0       -1.544532   -2.099658   -0.169165
     11          6           0       -2.549650   -0.256330   -0.318884
     12          1           0       -2.510245   -0.108541   -1.405616
     13          1           0       -3.439580   -0.865798   -0.087733
     14          8           0       -2.602693    0.976339    0.363765
     15          1           0       -3.260874    1.529997   -0.049250
 ---------------------------------------------------------------------
                    Distance matrix (angstroms):
                    1          2          3          4          5
     1  Si   0.000000
     2  O    1.684964   0.000000
     3  H    2.207390   0.953714   0.000000
     4  O    1.543281   2.757106   2.873547   0.000000
     5  O    1.685649   2.642449   3.008237   2.713998   0.000000
     6  H    2.186554   3.455734   3.746586   2.742315   0.954417
     7  O    1.684413   2.563691   3.423809   2.792887   2.587833
     8  C    2.758977   3.100381   3.982356   3.630067   3.914929
     9  H    2.878087   2.701637   3.488178   3.650976   4.258082
    10  H    3.539366   3.667513   4.602839   4.618576   4.386975
    11  C    3.728790   4.391290   5.182579   4.107940   4.945884
    12  H    3.927838   4.903051   5.711572   4.284319   4.866804
    13  H    4.699129   5.128240   5.942084   5.157665   5.891698
    14  O    3.830965   4.524735   5.127062   3.690485   5.291115
    15  H    4.591272   5.427996   6.007599   4.279530   5.968134
                    6          7          8          9         10
     6  H    0.000000
     7  O    3.041002   0.000000
     8  C    4.412482   1.379950   0.000000
     9  H    4.863714   2.063985   1.098115   0.000000
    10  H    4.949554   2.020219   1.101937   1.767792   0.000000
    11  C    5.216532   2.431821   1.517494   2.140932   2.104884
    12  H    4.977031   2.548863   2.126466   3.025196   2.534949
    13  H    6.224946   3.312723   2.133331   2.565813   2.262796
    14  O    5.478601   3.089324   2.414406   2.551849   3.296283
    15  H    6.037792   3.835884   3.231171   3.480859   4.016790
                   11         12         13         14         15
    11  C    0.000000
    12  H    1.097444   0.000000
    13  H    1.103112   1.781549   0.000000
    14  O    1.410070   2.077552   2.073090   0.000000
    15  H    1.941521   2.255654   2.402759   0.954107   0.000000
 Stoichiometry    C2H7O5Si(1-)
 Framework group  C1[X(C2H7O5Si)]
 Deg. of freedom    39
 Full point group                 C1      NOp   1
 Largest Abelian subgroup         C1      NOp   1
 Largest concise Abelian subgroup C1      NOp   1
                         Standard orientation:                         
 ---------------------------------------------------------------------
 Center     Atomic      Atomic             Coordinates (Angstroms)
 Number     Number       Type             X           Y           Z
 ---------------------------------------------------------------------
      1         14           0        1.112722    0.192317   -0.001209
      2          8           0        1.436947   -0.621965    1.437863
      3          1           0        2.079396   -0.142757    1.954766
      4          8           0        0.981797    1.728374    0.070246
      5          8           0        2.326331   -0.353562   -1.035898
      6          1           0        2.418043    0.268711   -1.753726
      7          8           0       -0.185738   -0.733338   -0.543803
      8          6           0       -1.342108   -1.059577    0.134900
      9          1           0       -1.238011   -0.932211    1.220625
     10          1           0       -1.562823   -2.124310   -0.043687
     11          6           0       -2.568871   -0.298013   -0.331855
     12          1           0       -2.523199   -0.228953   -1.426171
     13          1           0       -3.459544   -0.890477   -0.062514
     14          8           0       -2.627167    0.980617    0.259756
     15          1           0       -3.283449    1.502102   -0.195950
 ---------------------------------------------------------------------
 Rotational constants (GHZ):           2.9337544           1.0255893           0.9556779
 Standard basis: def2TZVPP (5D, 7F)
 There are   405 symmetry adapted cartesian basis functions of A   symmetry.
 There are   357 symmetry adapted basis functions of A   symmetry.
   357 basis functions,   545 primitive gaussians,   405 cartesian basis functions
    37 alpha electrons       37 beta electrons
       nuclear repulsion energy       501.5907061237 Hartrees.
 NAtoms=   15 NActive=   15 NUniq=   15 SFac= 1.00D+00 NAtFMM=   60 NAOKFM=F Big=F
 Integral buffers will be    131072 words long.
 Raffenetti 2 integral format.
 Two-electron integral symmetry is turned on.
 Nuclear repulsion after empirical dispersion term =      501.5844369216 Hartrees.
 One-electron integrals computed using PRISM.
   1 Symmetry operations used in ECPInt.
 ECPInt:  NShTT=    8911 NPrTT=   25186 LenC2=    8456 LenP2D=   18744.
 LDataN:  DoStor=T MaxTD1= 6 Len=  172
 NBasis=   357 RedAO= T EigKep=  3.03D-04  NBF=   357
 NBsUse=   357 1.00D-06 EigRej= -1.00D+00 NBFU=   357
 Initial guess from the checkpoint file:  "1QmonoL_opt.chk"
 B after Tr=    -0.000000    0.000000   -0.000000
         Rot=    0.999995   -0.002841    0.001423   -0.000885 Ang=  -0.38 deg.
 ExpMin= 7.01D-02 ExpMax= 4.48D+04 ExpMxC= 1.53D+03 IAcc=3 IRadAn=         5 AccDes= 0.00D+00
 Harris functional with IExCor= 4639 and IRadAn=       5 diagonalized for initial guess.
 HarFok:  IExCor= 4639 AccDes= 0.00D+00 IRadAn=         5 IDoV= 1 UseB2=F ITyADJ=14
 ICtDFT=  3500011 ScaDFX=  1.000000  1.000000  1.000000  1.000000
 FoFCou: FMM=F IPFlag=           0 FMFlag=      100000 FMFlg1=           0
         NFxFlg=           0 DoJE=T BraDBF=F KetDBF=T FulRan=T
         wScrn=  0.000000 ICntrl=       500 IOpCl=  0 I1Cent=   200000004 NGrid=           0
         NMat0=    1 NMatS0=      1 NMatT0=    0 NMatD0=    1 NMtDS0=    0 NMtDT0=    0
 Petite list used in FoFCou.
 Requested convergence on RMS density matrix=1.00D-08 within 128 cycles.
 Requested convergence on MAX density matrix=1.00D-06.
 Requested convergence on             energy=1.00D-06.
 No special actions if energy rises.
 Integral accuracy reduced to 1.0D-05 until final iterations.
 Initial convergence to 1.0D-05 achieved.  Increase integral accuracy.
 SCF Done:  E(RwB97XD) =  -746.321787204     A.U. after   12 cycles
            NFock= 12  Conv=0.75D-08     -V/T= 2.0033
[...]
 ! D24   D(13,11,14,15)        172.9754         -DE/DX =    0.0                 !
 --------------------------------------------------------------------------------
 GradGradGradGradGradGradGradGradGradGradGradGradGradGradGradGradGradGrad


 ----------------------------------------------------------------------

 Electric dipole moment (input orientation):
 (Debye = 10**-18 statcoulomb cm , SI units = C m)
                  (au)            (Debye)         (10**-30 SI)
   Tot        0.799982D+00      0.203335D+01      0.678253D+01
   x         -0.299813D+00     -0.762049D+00     -0.254192D+01
   y         -0.732801D+00     -0.186259D+01     -0.621295D+01
   z         -0.114395D+00     -0.290764D+00     -0.969884D+00

 Dipole polarizability, Alpha (input orientation).
 (esu units = cm**3 , SI units = C**2 m**2 J**-1)
 Alpha(0;0):
               (au)            (10**-24 esu)      (10**-40 SI)
   iso        0.686017D+02      0.101657D+02      0.113109D+02
   aniso      0.142692D+02      0.211447D+01      0.235267D+01
   xx         0.772058D+02      0.114407D+02      0.127295D+02
   yx         0.336624D+01      0.498826D+00      0.555019D+00
   yy         0.652858D+02      0.967435D+01      0.107642D+02
   zx        -0.202328D+00     -0.299820D-01     -0.333595D-01
   zy        -0.246441D-01     -0.365187D-02     -0.406326D-02
   zz         0.633134D+02      0.938208D+01      0.104390D+02

 ----------------------------------------------------------------------

 Dipole orientation:
    14          1.45268631          0.40278101         -0.79510925
     8          1.64848549          3.55829322         -0.60815989
     1          0.73224769          4.26243667         -1.99310874
     8         -0.43550690         -0.54841227         -2.85577929
     8          4.41952509         -0.60522222         -1.14697131
     1          4.42655416         -1.96540777         -2.33085109
     8          0.76701057         -0.49694100          2.15152497
     6         -1.62722137         -0.10268183          3.20854694
     1         -2.24087032          1.86596128          2.95646444
     1         -1.46828360         -0.45096862          5.24816753
     6         -3.68082972         -1.84184157          2.16137162
     1         -2.92440717         -3.78292712          2.19257470
     1         -5.28288807         -1.78485178          3.47885334
     8         -4.59689929         -1.18522014         -0.22086859
     1         -3.11913323         -1.01809161         -1.39114193

 Electric dipole moment (dipole orientation):
 (Debye = 10**-18 statcoulomb cm , SI units = C m)
                  (au)            (Debye)         (10**-30 SI)
   Tot        0.799982D+00      0.203335D+01      0.678253D+01
   x          0.000000D+00      0.000000D+00      0.000000D+00
   y          0.000000D+00      0.000000D+00      0.000000D+00
   z          0.799982D+00      0.203335D+01      0.678253D+01

 Dipole polarizability, Alpha (dipole orientation).
 (esu units = cm**3 , SI units = C**2 m**2 J**-1)
 Alpha(0;0):
               (au)            (10**-24 esu)      (10**-40 SI)
   iso        0.686017D+02      0.101657D+02      0.113109D+02
   aniso      0.142692D+02      0.211447D+01      0.235267D+01
   xx         0.725331D+02      0.107483D+02      0.119591D+02
   yx         0.259321D+01      0.384275D+00      0.427563D+00
   yy         0.640691D+02      0.949406D+01      0.105636D+02
   zx        -0.636236D+01     -0.942804D+00     -0.104901D+01
   zy        -0.157625D+01     -0.233576D+00     -0.259888D+00
   zz         0.692028D+02      0.102548D+02      0.114100D+02

 ----------------------------------------------------------------------
 Unable to Open any file for archive entry.
 1\1\GINC-GRA603\Freq\RwB97XD\def2TZVPP\C2H7O5Si1(1-)\ARHENDER\18-Mar-2
 024\0\\#N Geom=AllCheck Guess=TCheck SCRF=Check GenChk RwB97XD/def2TZV
 PP Freq\\Once deprotonated Q monodentate L1 optimization\\-1,1\Si,0.89
 59697387,0.0978594702,-0.032690291\O,1.4513094512,-0.4678577019,1.4439
 276277\H,1.4126204357,0.2500338946,2.0717633226\O,0.2770599255,1.53068
 40512,0.0366340942\O,2.1825976917,-0.0613033937,-1.0830721178\H,2.2044
 626862,0.7028265659,-1.6542141338\O,-0.149671246,-1.0949149174,-0.5558
 092817\C,-1.4079210533,-1.282226773,0.0301468014\H,-1.3298571541,-1.33
 94846954,1.1251980381\H,-1.7940089643,-2.2471659867,-0.3245418573\C,-2
 .4298459434,-0.2035247162,-0.326372484\H,-2.3934562092,-0.0657678809,-
 1.4196665715\H,-3.4256690146,-0.5955457235,-0.0807185355\O,-2.27822487
 39,1.0044511902,0.3538600939\H,-1.3336654703,1.3133366167,0.2303552948
 \\Version=ES64L-G16RevC.01\State=1-A\HF=-746.3577386\RMSD=6.972e-10\RM
 SF=2.680e-05\ZeroPoint=0.1095943\Thermal=0.1192197\ETot=-746.2385189\H
 Tot=-746.2375747\GTot=-746.2831048\Dipole=-0.2998133,-0.7328012,-0.114
 3954\DipoleDeriv=2.3527987,0.1167681,-0.1002965,0.1359018,1.8558265,-0
 .0922657,0.0946504,0.0158152,1.9298531,-0.8390116,0.0390241,-0.2416185
 ,0.075403,-0.6087193,0.2829527,-0.3016835,0.1684377,-1.1205277,0.28442
 69,0.0037053,0.0487299,-0.004036,0.173751,-0.0683729,0.044902,-0.06580
 46,0.2980289,-1.3867391,0.0073365,0.0173402,0.0662201,-1.1852577,0.015
 418,0.0278806,-0.0024292,-0.8391433,-1.1655712,-0.0447904,0.3759309,0.
 0525212,-0.5562955,-0.109612,0.3923659,-0.0433806,-0.9112628,0.3241096
 ,0.0267396,-0.0518608,0.0181753,0.1816987,0.0590763,-0.0651925,0.05700
 83,0.2730028,-1.5454711,-0.3553146,0.0693748,-0.4775499,-0.9029946,-0.
 0588186,0.0802415,-0.0515433,-0.6269012,0.9181284,0.2941358,-0.0961279
 ,0.1394719,0.3257605,0.0051235,-0.2669505,-0.0334304,0.3575309,-0.0259
 149,0.0056831,-0.0144526,0.0063986,0.0264129,-0.0000103,0.0588325,0.07
 56152,-0.2139947,-0.0864841,-0.1165222,-0.0195273,-0.133778,-0.2366959
 ,-0.0571324,-0.0446223,-0.1119469,0.0116501,0.3114822,0.1062452,0.0254
 351,0.2237318,0.6669227,0.2052987,0.0530718,0.1993154,0.4909459,0.0265
 667,0.0039518,0.0229361,0.005447,-0.0355972,0.014469,-0.0651193,-0.024
 2106,-0.2973442,-0.2668158,-0.1121321,0.0259033,-0.1209558,-0.040433,0
 .0088875,0.0846978,0.027653,0.0219317,-1.0120841,-0.1481367,-0.0661478
 ,-0.1705421,-0.943336,-0.1808788,-0.0357259,-0.1697047,-0.5635959,1.11
 05794,0.1733065,0.0043811,0.1835912,0.278957,-0.0241352,-0.0573484,-0.
 0413947,0.1898263\Polar=77.2058404,3.3662444,65.2857583,-0.2023284,-0.
 0246441,63.3133905\Quadrupole=-5.0474932,-1.823009,6.8705021,6.5964924
 ,1.0216502,-1.1734044\PG=C01 [X(C2H7O5Si1)]\NImag=0\\0.46421874,-0.085
 74497,0.60905166,-0.02801717,0.00632722,0.43744857,-0.06200289,0.02630
 060,-0.04682367,0.05706805,0.01882527,-0.07022663,0.03637708,-0.048402
 35,0.38331956,-0.05333584,0.06402230,-0.17458474,0.05751656,0.20518906
 ,0.47067540,0.00319229,-0.00584320,-0.00912516,-0.00398636,0.02482359,
 0.01407913,0.00613785,0.00149552,0.00397227,0.00764596,0.01584527,-0.3
 1586418,-0.28012729,-0.01732912,0.31522566,-0.00108609,-0.02206360,-0.
 02311383,0.00470707,-0.25010986,-0.25592791,-0.00528939,0.27010109,0.2
 7622001,-0.11385886,0.12460173,0.00607429,0.00411507,0.01631064,-0.009
 01055,-0.00139092,-0.00048515,0.00410483,0.13355949,0.13353015,-0.3589
 7519,-0.01348229,0.01143185,-0.00941346,0.00961730,-0.00053321,-0.0025
 3219,-0.00147101,-0.14914232,0.40482169,0.00792983,-0.01269154,-0.0558
 6787,-0.01264393,0.02005712,-0.00174421,0.00318454,-0.00088756,0.00555
 603,-0.00943984,0.01630248,0.04326857,-0.14899947,0.02842310,0.0826903
 4,0.00554350,-0.00045451,0.00395300,-0.00124119,-0.00047130,-0.0002205
 0,-0.01030679,0.01029198,0.01364783,0.18708056,0.00843921,-0.04997047,
 -0.00101465,-0.00299284,0.00810037,0.00880254,-0.00079257,-0.00150031,
 0.00274853,0.02224392,-0.00117736,-0.01230883,-0.00932522,0.40035156,0
 .09585685,-0.01775410,-0.11627923,0.01011956,0.00205207,-0.01971001,0.
 00111803,0.00216659,-0.00079300,0.01265723,-0.00478041,0.00341309,-0.1
 3600082,-0.25642213,0.33337256,-0.00339734,-0.01750341,0.01867437,-0.0
 0052731,0.00119768,0.00031938,0.00029923,-0.00026670,0.00043166,0.0017
 9199,0.00008522,-0.00434462,-0.01439797,0.00235104,0.01105624,0.020816
 41,0.00361138,-0.00019796,0.00032576,0.00082545,0.00046090,-0.00255480
 ,-0.00000824,0.00012250,-0.00023490,0.00017899,-0.00252433,-0.00052108
 ,-0.01878666,-0.35572432,0.27307749,0.01410273,0.35754241,0.00392616,0
 .01921892,-0.01305768,0.00168451,-0.00162970,-0.00296385,0.00042239,0.
 00061228,-0.00090302,-0.00551378,-0.00028820,0.00292345,0.02620050,0.2
 5280401,-0.20525509,-0.02632035,-0.26963049,0.21922333,-0.10220471,-0.
 07110844,-0.03148415,-0.00447529,-0.01136599,-0.01972853,-0.00398869,0
 .00050507,-0.00157477,0.01343747,-0.00637937,-0.00287406,-0.02165649,-
 0.01754585,0.00656644,-0.00328670,0.00021885,-0.00083054,0.42527439,-0
 .06736878,-0.12676504,-0.04255046,-0.00391043,0.00438558,-0.00604447,-
 0.00025384,0.00045589,0.00124473,-0.00876566,-0.02585442,-0.01056974,-
 0.00786171,0.00064427,0.00246049,0.00024447,0.00006651,-0.00123075,0.1
 4630600,0.20766554,-0.02426091,-0.03847416,-0.05551355,-0.01307061,-0.
 01089892,-0.01234276,-0.00370268,0.00054461,-0.00094346,-0.00194183,-0
 .00432765,0.00908695,0.00994727,0.00663414,0.00303619,0.00058877,-0.00
 027923,-0.00010328,-0.06385716,0.03335346,0.15747618,-0.03378269,-0.02
 401749,-0.00430684,0.00349949,0.00166013,0.00773413,0.00133557,0.00050
 352,-0.00007501,-0.00213860,0.01076849,0.00298992,0.00527546,0.0014965
 0,-0.00066670,-0.00062353,-0.00024709,0.00002158,-0.21118846,-0.032854
 80,0.06288262,0.47811173,-0.02086539,-0.01195743,0.00274582,0.00069718
 ,0.00016666,0.00189195,0.00019802,0.00017414,-0.00006698,0.00125848,0.
 00258575,-0.00001345,-0.00121819,0.00038265,-0.00064955,-0.00008550,0.
 00023731,0.00013246,-0.02234065,-0.07421285,0.00502452,0.04686898,0.53
 771606,0.00170922,0.00837158,0.00698241,-0.00077424,-0.00118811,-0.007
 00005,-0.00149299,-0.00055329,-0.00027057,-0.00001467,-0.00400410,-0.0
 0273942,-0.00200634,-0.00198336,0.00218202,-0.00045832,-0.00010391,0.0
 0000255,0.06752212,0.00858836,-0.10291187,0.02449327,0.03169096,0.5693
 5416,0.00263014,0.00262626,0.00620183,0.00067912,0.00063651,-0.0009495
 6,-0.00001564,-0.00003864,-0.00007917,0.00000942,-0.00061541,-0.000865
 62,-0.00095138,-0.00037741,-0.00061540,0.00006911,0.00007375,-0.000031
 00,-0.01273666,-0.00625940,0.03891447,-0.05172355,-0.00052790,-0.03279
 790,0.06421168,-0.00070955,0.00073081,0.00225228,0.00060632,-0.0002118
 6,-0.00019178,-0.00019786,-0.00007087,-0.00001475,0.00025983,0.0000829
 0,-0.00052494,-0.00011614,-0.00015131,-0.00023573,-0.00000101,0.000023
 84,0.00002509,-0.00237906,0.00247036,0.00791427,-0.00026950,-0.0530894
 6,0.00599915,0.00032951,0.05022940,-0.00274190,-0.00427294,-0.00455914
 ,-0.00023595,-0.00013276,0.00217879,0.00049082,0.00026332,0.00004624,-
 0.00013951,0.00092810,0.00102448,0.00096248,0.00056795,0.00021908,-0.0
 0004625,-0.00008559,-0.00000893,0.01708085,0.00629934,-0.01372775,-0.0
 3000236,0.01049697,-0.28323913,0.02119466,-0.01339015,0.31583832,0.002
 00835,0.00275907,0.00275121,-0.00049903,-0.00019344,-0.00098357,-0.000
 05139,0.00004410,-0.00003554,0.00076242,-0.00179472,-0.00065661,-0.001
 45581,-0.00058696,0.00053288,-0.00008368,0.00004338,-0.00007048,-0.033
 44595,-0.03303342,-0.00117837,-0.06451863,-0.06210490,-0.02957778,0.00
 009751,-0.00428025,-0.00305654,0.09216992,0.00288075,0.00174717,0.0014
 4903,-0.00040122,0.00011640,-0.00068741,0.00000517,-0.00002761,0.00007
 469,-0.00074093,-0.00061080,-0.00015690,-0.00083730,-0.00010373,0.0003
 5841,0.00003555,0.00000695,-0.00011567,-0.01294753,-0.00116103,0.00320
 373,-0.06342600,-0.23758102,-0.07285036,0.00147312,0.00201899,-0.00006
 044,0.07840713,0.25845011,0.00133173,0.00037322,-0.00124303,-0.0004277
 1,-0.00002752,0.00052806,0.00022798,0.00008397,0.00005139,-0.00026318,
 0.00018889,0.00038197,0.00025815,0.00015591,0.00002363,0.00006241,-0.0
 0000738,-0.00001252,0.01182470,0.01627636,0.00753786,-0.03125283,-0.07
 676278,-0.08313616,-0.00896073,-0.02813172,-0.00937586,0.02470289,0.07
 973376,0.08102513,-0.00360710,0.00609085,0.00249586,0.00047275,-0.0006
 4122,-0.00081703,-0.00031998,-0.00004646,-0.00027596,0.00032382,0.0013
 3125,0.00047426,0.00013060,-0.00087820,0.00005627,-0.00024340,-0.00004
 812,0.00009242,-0.04243861,0.01833904,-0.00212161,-0.11898181,0.038120
 12,-0.02437006,-0.00126247,0.00590367,-0.00268528,0.00723864,-0.011349
 65,0.00182954,0.56126053,0.00018411,0.01662381,0.00324208,-0.00009709,
 -0.00279913,-0.00011556,-0.00050752,0.00035043,-0.00065054,0.01290085,
 -0.00299137,-0.00168249,0.00012665,-0.00288600,-0.00069174,-0.00053633
 ,0.00017348,0.00051183,-0.01402950,0.00466524,-0.00254403,0.05262699,-
 0.12689767,0.02635397,0.00137032,-0.00213031,-0.00201957,0.01657522,-0
 .01924861,0.00861582,0.05500721,0.49019446,-0.00258242,0.00301817,0.00
 178568,0.00017891,-0.00111699,0.00075131,-0.00019368,0.00019125,-0.000
 22700,0.00784259,-0.00085219,-0.00234808,0.00080929,-0.00079045,-0.001
 35237,0.00005770,0.00019249,0.00049451,0.01624620,-0.00968251,0.003602
 95,-0.02659914,0.02439855,-0.09415147,-0.02387081,0.02592402,-0.011559
 82,0.00859682,-0.01327997,0.00292805,-0.02793570,-0.01187684,0.5524001
 2,-0.00068754,-0.00008902,-0.00085679,-0.00005046,-0.00017916,0.000375
 90,0.00004371,0.00004403,-0.00001993,0.00030017,-0.00000842,0.00044977
 ,0.00015063,0.00000565,0.00003951,-0.00004838,-0.00000811,0.00000582,0
 .00311277,-0.00146579,0.00068781,-0.00105993,0.00827765,-0.02445059,-0
 .00263438,0.00309878,-0.00163864,0.00022861,-0.00014847,0.00052698,-0.
 05304857,-0.00348772,0.01379623,0.04942486,0.00007038,-0.00078529,0.00
 020117,0.00015486,0.00025020,-0.00021241,0.00001480,-0.00006617,0.0000
 1373,-0.00093554,0.00018297,0.00053355,-0.00002612,0.00017383,0.000024
 53,0.00002834,-0.00000293,-0.00004020,-0.00144141,0.00160342,-0.002147
 09,-0.00020090,-0.00360497,0.02565875,0.00386047,-0.00293348,0.0007670
 2,-0.00095034,0.00049362,-0.00041107,-0.00364114,-0.05609542,0.0437322
 8,0.00098586,0.06755513,0.00044766,-0.00073637,-0.00119091,-0.00022345
 ,0.00011358,0.00024960,0.00016578,0.00002300,0.00004694,-0.00187060,0.
 00022996,0.00110508,-0.00031438,0.00022396,0.00051080,-0.00003567,-0.0
 0004292,-0.00016752,-0.00025049,-0.00199843,0.00309784,0.00340942,0.00
 439300,-0.01321340,-0.00080979,0.00176508,0.00047976,-0.00070436,0.001
 26912,-0.00003926,0.00872307,0.04545967,-0.26717034,-0.00959657,-0.035
 49010,0.30391538,0.00238888,0.00171988,0.00096443,-0.00035818,0.000019
 15,-0.00073872,-0.00001282,-0.00003932,0.00008038,-0.00110069,-0.00039
 678,-0.00000337,-0.00065060,-0.00012437,0.00037411,0.00004036,0.000000
 31,-0.00011610,-0.00611825,0.00395279,-0.00193021,-0.01870069,-0.01167
 495,0.00967627,0.00041063,-0.00005692,-0.00103463,0.00072706,0.0011245
 9,0.00074792,-0.25021145,-0.06879215,0.05359160,-0.00068765,0.00052593
 ,0.00113347,0.27358353,-0.00004019,-0.00329644,-0.00063986,-0.00008141
 ,0.00049093,0.00007233,0.00010190,-0.00003642,0.00015255,-0.00287941,0
 .00092995,0.00047992,-0.00008059,0.00064401,0.00010392,0.00015000,0.00
 000008,-0.00009954,0.00598141,-0.00129982,0.00152132,0.01776861,0.0076
 5215,-0.00681313,-0.00088275,0.00024872,0.00053578,0.00011520,0.000834
 16,-0.00083135,-0.06635199,-0.06900107,0.02256778,-0.00664376,-0.00083
 607,0.00330041,0.08344235,0.09224060,-0.00037553,-0.00032816,-0.000336
 77,0.00007191,0.00007316,0.00007708,0.00000274,0.00000398,0.00001492,-
 0.00085745,0.00031473,0.00044212,0.00001352,0.00005107,0.00013442,-0.0
 0005113,-0.00001742,-0.00004925,-0.00079863,0.00085881,0.00118429,-0.0
 0881320,-0.00220925,0.00188413,0.00037948,-0.00051628,-0.00009480,0.00
 081456,-0.00065127,0.00028990,0.05884494,0.02443194,-0.06738631,0.0286
 0896,0.00928427,-0.00675002,-0.05808703,-0.01556010,0.06688422,0.00083
 645,-0.02563714,-0.00249627,-0.00102979,0.00438422,-0.00230508,0.00049
 915,-0.00048531,0.00146048,-0.04853877,0.00222580,0.00649335,-0.002813
 69,0.00479553,0.00284902,0.00096724,-0.00024303,-0.00148527,0.00989504
 ,0.00360449,-0.00004729,0.00441087,0.01943544,0.01287004,0.00143275,-0
 .00187654,0.00163601,-0.00158681,0.00485211,-0.00061545,-0.09925461,-0
 .03663274,-0.00979127,0.00485457,-0.00101032,-0.00403276,-0.00292613,-
 0.03620234,-0.02097708,0.44731635,-0.00317273,-0.01692906,-0.00231677,
 0.00033427,0.00319761,-0.00056704,0.00029330,-0.00043956,0.00070851,-0
 .01893010,0.01190994,0.00247873,-0.00060846,0.00323987,0.00117002,0.00
 052266,-0.00023473,-0.00067358,0.00910370,0.00918152,0.00062757,-0.011
 12167,-0.04096797,-0.01976357,-0.00186871,0.00325350,-0.00019454,0.005
 11236,-0.00604170,0.00051448,-0.00574981,-0.20730475,-0.08174547,-0.00
 054250,-0.00719053,-0.01890190,-0.00965638,-0.02527682,-0.01283560,0.1
 2718092,0.34138756,0.00038749,-0.00093373,-0.00237346,-0.00032112,-0.0
 0016071,0.00121770,0.00059650,0.00000766,-0.00017021,0.00289348,0.0003
 6220,0.00790651,-0.00007810,0.00042576,0.00040757,-0.00001279,-0.00006
 450,-0.00015165,0.00115234,0.00132802,0.00131932,0.00063626,0.00009456
 ,0.00437117,0.00228818,-0.00124583,0.00310266,-0.00115535,0.00183492,0
 .00133012,0.00719825,-0.07966165,-0.11874615,-0.00696414,-0.04122816,-
 0.02044339,-0.00416735,-0.00190639,0.00481162,-0.04465855,0.12784639,0
 .15726818,-0.00673426,0.03742217,0.00325773,0.00155132,-0.00662050,0.0
 0389079,-0.00050082,0.00072449,-0.00212805,0.02303479,-0.01079451,-0.0
 0434143,0.00429263,-0.00670846,-0.00394323,-0.00137605,0.00028641,0.00
 201415,-0.01017987,-0.01067298,-0.00091027,0.01008477,0.00396160,-0.00
 032805,-0.00021629,-0.00031129,0.00021624,-0.00159122,0.00107267,0.000
 00760,-0.00005834,-0.01470829,-0.01014634,0.00010158,0.00256514,0.0039
 5866,0.00361599,0.00560297,0.00122395,-0.31406262,-0.09089685,0.042204
 89,0.29203838,0.00886485,0.00697778,-0.00056236,-0.00031047,-0.0019729
 5,0.00090528,0.00002878,0.00023642,-0.00043219,0.00412466,-0.01643409,
 -0.00049528,0.00094446,-0.00202304,-0.00087985,-0.00032474,0.00005027,
 0.00040356,-0.00257724,-0.00184515,-0.00015254,0.00044423,-0.00060335,
 0.00059705,0.00020029,-0.00047122,0.00029748,-0.00011242,0.00110709,0.
 00022941,-0.03608555,-0.02265309,-0.00068010,0.00016097,0.00125570,0.0
 0039194,-0.00004413,-0.00329396,-0.00289990,-0.06439110,-0.06778487,-0
 .00669855,0.08907741,0.10745447,0.00081092,-0.00407680,0.00190355,0.00
 024219,0.00140249,-0.00140440,-0.00048399,-0.00007556,0.00041347,-0.00
 452102,0.00126218,-0.01240866,0.00013775,0.00010556,0.00009034,0.00007
 861,-0.00005353,0.00002895,0.00100565,0.00166679,-0.00079891,-0.000451
 13,-0.00116677,0.00188561,0.00000136,0.00037130,-0.00032389,0.00002024
 ,-0.00012165,-0.00028928,-0.02150897,-0.00937292,0.00097893,-0.0009643
 2,-0.00068629,-0.00043056,-0.00049076,-0.00288364,-0.00110556,0.061100
 12,0.00365277,-0.03984999,-0.03497664,0.00997606,0.05131040\\0.0000830
 8,0.00005453,-0.00001851,0.00000349,-0.00000907,0.00001234,-0.00000151
 ,0.00000293,-0.00000319,-0.00000850,-0.00000823,-0.00000276,-0.0000523
 3,0.00002233,0.00003556,0.00000579,-0.00000950,0.00000936,-0.00005732,
 -0.00007251,-0.00002859,0.00004273,0.00003733,-0.00000327,0.00000073,-
 0.00001304,-0.00000037,-0.00000864,-0.00000945,0.00000063,0.00002026,0
 .00000900,0.00001474,-0.00000185,0.00000627,-0.00000943,0.00000573,-0.
 00000111,0.00000200,0.00001173,0.00001802,-0.00000735,-0.00004341,-0.0
 0002750,-0.00000116\\\@
 The archive entry for this job was punched.


 IF AT FIRST YOU DON'T SUCCEED, TRY, TRY AGAIN.
 THEN GIVE UP;
 THERE'S NO USE BEING A DAMN FOOL ABOUT IT.

                                 -- W. C. FIELDS
 Job cpu time:       0 days  1 hours 46 minutes 45.5 seconds.
 Elapsed time:       0 days  0 hours 26 minutes 42.5 seconds.
 File lengths (MBytes):  RWF=    176 Int=      0 D2E=      0 Chk=     11 Scr=      1
 Normal termination of Gaussian 16 at Mon Mar 18 18:17:57 2024.
