 Entering Gaussian System, Link 0=/opt/software/gaussian/g16.c01/g16
 Initial command:
 /opt/software/gaussian/g16.c01/l1.exe "/scratch/arhender/17828494/Gau-253628.inp" -scrdir="/scratch/arhender/17828494/"
 Entering Link 1 = /opt/software/gaussian/g16.c01/l1.exe PID=    253629.
  
 Copyright (c) 1988-2019, Gaussian, Inc.  All Rights Reserved.
  
 This is part of the Gaussian(R) 16 program.  It is based on
 the Gaussian(R) 09 system (copyright 2009, Gaussian, Inc.),
 the Gaussian(R) 03 system (copyright 2003, Gaussian, Inc.),
 the Gaussian(R) 98 system (copyright 1998, Gaussian, Inc.),
 the Gaussian(R) 94 system (copyright 1995, Gaussian, Inc.),
 the Gaussian 92(TM) system (copyright 1992, Gaussian, Inc.),
 the Gaussian 90(TM) system (copyright 1990, Gaussian, Inc.),
 the Gaussian 88(TM) system (copyright 1988, Gaussian, Inc.),
 the Gaussian 86(TM) system (copyright 1986, Carnegie Mellon
 University), and the Gaussian 82(TM) system (copyright 1983,
 Carnegie Mellon University). Gaussian is a federally registered
 trademark of Gaussian, Inc.
  
 This software contains proprietary and confidential information,
 including trade secrets, belonging to Gaussian, Inc.
  
 This software is provided under written license and may be
 used, copied, transmitted, or stored only in accord with that
 written license.
  
 The following legend is applicable only to US Government
 contracts under FAR:
  
                    RESTRICTED RIGHTS LEGEND
  
 Use, reproduction and disclosure by the US Government is
 subject to restrictions as set forth in subparagraphs (a)
 and (c) of the Commercial Computer Software - Restricted
 Rights clause in FAR 52.227-19.
  
 Gaussian, Inc.
 340 Quinnipiac St., Bldg. 40, Wallingford CT 06492
  
  
 ---------------------------------------------------------------
 Warning -- This program may not be used in any manner that
 competes with the business of Gaussian, Inc. or will provide
 assistance to any competitor of Gaussian, Inc.  The licensee
 of this program is prohibited from giving any competitor of
 Gaussian, Inc. access to this program.  By using this program,
 the user acknowledges that Gaussian, Inc. is engaged in the
 business of creating and licensing software in the field of
 computational chemistry and represents and warrants to the
 licensee that it is not a competitor of Gaussian, Inc. and that
 it will not use this program in any manner prohibited above.
 ---------------------------------------------------------------
  

 Cite this work as:
 Gaussian 16, Revision C.01,
 M. J. Frisch, G. W. Trucks, H. B. Schlegel, G. E. Scuseria, 
 M. A. Robb, J. R. Cheeseman, G. Scalmani, V. Barone, 
 G. A. Petersson, H. Nakatsuji, X. Li, M. Caricato, A. V. Marenich, 
 J. Bloino, B. G. Janesko, R. Gomperts, B. Mennucci, H. P. Hratchian, 
 J. V. Ortiz, A. F. Izmaylov, J. L. Sonnenberg, D. Williams-Young, 
 F. Ding, F. Lipparini, F. Egidi, J. Goings, B. Peng, A. Petrone, 
 T. Henderson, D. Ranasinghe, V. G. Zakrzewski, J. Gao, N. Rega, 
 G. Zheng, W. Liang, M. Hada, M. Ehara, K. Toyota, R. Fukuda, 
 J. Hasegawa, M. Ishida, T. Nakajima, Y. Honda, O. Kitao, H. Nakai, 
 T. Vreven, K. Throssell, J. A. Montgomery, Jr., J. E. Peralta, 
 F. Ogliaro, M. J. Bearpark, J. J. Heyd, E. N. Brothers, K. N. Kudin, 
 V. N. Staroverov, T. A. Keith, R. Kobayashi, J. Normand, 
 K. Raghavachari, A. P. Rendell, J. C. Burant, S. S. Iyengar, 
 J. Tomasi, M. Cossi, J. M. Millam, M. Klene, C. Adamo, R. Cammi, 
 J. W. Ochterski, R. L. Martin, K. Morokuma, O. Farkas, 
 J. B. Foresman, and D. J. Fox, Gaussian, Inc., Wallingford CT, 2019.
 
 ******************************************
 Gaussian 16:  ES64L-G16RevC.01  3-Jul-2019
                15-Mar-2024 
 ******************************************
 %chk=QbiL_deprotonated_Opt.chk
 %mem=1600MB
 %nprocs=16
 Will use up to   16 processors via shared memory.
 ---------------------------------------------
 # opt freq wb97xd/def2tzvpp geom=connectivity
 ---------------------------------------------
 1/18=20,19=15,26=3,38=1,57=2/1,3;
 2/9=110,12=2,17=6,18=5,40=1/2;
 3/5=44,7=202,11=2,25=1,30=1,71=1,74=-58/1,2,3;
 4//1;
 5/5=2,38=5/2;
 6/7=2,8=2,9=2,10=2,28=1/1;
 7//1,2,3,16;
 1/18=20,19=15,26=3/3(2);
 2/9=110/2;
 99//99;
 2/9=110/2;
 3/5=44,7=202,11=2,25=1,30=1,71=1,74=-58/1,2,3;
 4/5=5,16=3,69=1/1;
 5/5=2,38=5/2;
 7//1,2,3,16;
 1/18=20,19=15,26=3/3(-5);
 2/9=110/2;
 6/7=2,8=2,9=2,10=2,19=2,28=1/1;
 99/9=1/99;
 ------------------------
 Opt of QbiL deprotonated
 ------------------------
 Symbolic Z-matrix:
 Charge = -1 Multiplicity = 1
 Si                   -0.6056    0.        0. 
 O                    -1.5362    0.7446   -1.1096 
 O                     0.4633    0.9424    0.8095 
 O                     0.4633   -0.9424   -0.8095 
 O                    -1.5362   -0.7445    1.1096 
 H                    -2.2981   -1.2325    0.8081 
 C                     1.7708   -0.7071   -0.3022 
 H                     2.0039   -1.4553    0.4604 
 H                     2.4916   -0.7982   -1.1144 
 C                     1.7708    0.7071    0.3022 
 H                     2.0038    1.4553   -0.4604 
 H                     2.4916    0.7982    1.1144 
 

 GradGradGradGradGradGradGradGradGradGradGradGradGradGradGradGradGradGrad
 Berny optimization.
 Initialization pass.
                           ----------------------------
                           !    Initial Parameters    !
                           ! (Angstroms and Degrees)  !
 --------------------------                            --------------------------
 ! Name  Definition              Value          Derivative Info.                !
 --------------------------------------------------------------------------------
 ! R1    R(1,2)                  1.6284         estimate D2E/DX2                !
 ! R2    R(1,3)                  1.6389         estimate D2E/DX2                !
 ! R3    R(1,4)                  1.6389         estimate D2E/DX2                !
 ! R4    R(1,5)                  1.6283         estimate D2E/DX2                !
 ! R5    R(3,10)                 1.4221         estimate D2E/DX2                !
 ! R6    R(4,7)                  1.4221         estimate D2E/DX2                !
 ! R7    R(5,6)                  0.9537         estimate D2E/DX2                !
 ! R8    R(7,8)                  1.0935         estimate D2E/DX2                !
 ! R9    R(7,9)                  1.0897         estimate D2E/DX2                !
 ! R10   R(7,10)                 1.5379         estimate D2E/DX2                !
 ! R11   R(10,11)                1.0935         estimate D2E/DX2                !
 ! R12   R(10,12)                1.0897         estimate D2E/DX2                !
 ! A1    A(2,1,3)              116.5105         estimate D2E/DX2                !
 ! A2    A(2,1,4)              107.4032         estimate D2E/DX2                !
 ! A3    A(2,1,5)              110.2913         estimate D2E/DX2                !
 ! A4    A(3,1,4)               98.5831         estimate D2E/DX2                !
 ! A5    A(3,1,5)              107.4016         estimate D2E/DX2                !
 ! A6    A(4,1,5)              116.5136         estimate D2E/DX2                !
 ! A7    A(1,3,10)             109.1667         estimate D2E/DX2                !
 ! A8    A(1,4,7)              109.1667         estimate D2E/DX2                !
 ! A9    A(1,5,6)              118.3654         estimate D2E/DX2                !
 ! A10   A(4,7,8)              109.3642         estimate D2E/DX2                !
 ! A11   A(4,7,9)              109.1743         estimate D2E/DX2                !
 ! A12   A(4,7,10)             106.9984         estimate D2E/DX2                !
 ! A13   A(8,7,9)              108.759          estimate D2E/DX2                !
 ! A14   A(8,7,10)             110.8001         estimate D2E/DX2                !
 ! A15   A(9,7,10)             111.7019         estimate D2E/DX2                !
 ! A16   A(3,10,7)             106.9984         estimate D2E/DX2                !
 ! A17   A(3,10,11)            109.3595         estimate D2E/DX2                !
 ! A18   A(3,10,12)            109.1743         estimate D2E/DX2                !
 ! A19   A(7,10,11)            110.8005         estimate D2E/DX2                !
 ! A20   A(7,10,12)            111.7019         estimate D2E/DX2                !
 ! A21   A(11,10,12)           108.763          estimate D2E/DX2                !
 ! D1    D(2,1,3,10)          -104.4888         estimate D2E/DX2                !
 ! D2    D(4,1,3,10)             9.9243         estimate D2E/DX2                !
 ! D3    D(5,1,3,10)           131.2849         estimate D2E/DX2                !
 ! D4    D(2,1,4,7)            131.2821         estimate D2E/DX2                !
 ! D5    D(3,1,4,7)              9.9243         estimate D2E/DX2                !
 ! D6    D(5,1,4,7)           -104.4881         estimate D2E/DX2                !
 ! D7    D(2,1,5,6)             43.0866         estimate D2E/DX2                !
 ! D8    D(3,1,5,6)            171.0095         estimate D2E/DX2                !
 ! D9    D(4,1,5,6)            -79.6526         estimate D2E/DX2                !
 ! D10   D(1,3,10,7)           -24.9726         estimate D2E/DX2                !
 ! D11   D(1,3,10,11)           95.0938         estimate D2E/DX2                !
 ! D12   D(1,3,10,12)         -146.0157         estimate D2E/DX2                !
 ! D13   D(1,4,7,8)             95.096          estimate D2E/DX2                !
 ! D14   D(1,4,7,9)           -146.0157         estimate D2E/DX2                !
 ! D15   D(1,4,7,10)           -24.9726         estimate D2E/DX2                !
 ! D16   D(4,7,10,3)            31.9265         estimate D2E/DX2                !
 ! D17   D(4,7,10,11)          -87.2127         estimate D2E/DX2                !
 ! D18   D(4,7,10,12)          151.3534         estimate D2E/DX2                !
 ! D19   D(8,7,10,3)           -87.2182         estimate D2E/DX2                !
 ! D20   D(8,7,10,11)          153.6426         estimate D2E/DX2                !
 ! D21   D(8,7,10,12)           32.2087         estimate D2E/DX2                !
 ! D22   D(9,7,10,3)           151.3534         estimate D2E/DX2                !
 ! D23   D(9,7,10,11)           32.2142         estimate D2E/DX2                !
 ! D24   D(9,7,10,12)          -89.2197         estimate D2E/DX2                !
 --------------------------------------------------------------------------------
 Trust Radius=3.00D-01 FncErr=1.00D-07 GrdErr=1.00D-06 EigMax=2.50D+02 EigMin=1.00D-04
 Number of steps in this run=     67 maximum allowed number of steps=    100.
 GradGradGradGradGradGradGradGradGradGradGradGradGradGradGradGradGradGrad

                          Input orientation:                          
 ---------------------------------------------------------------------
 Center     Atomic      Atomic             Coordinates (Angstroms)
 Number     Number       Type             X           Y           Z
 ---------------------------------------------------------------------
      1         14           0       -0.605600    0.000000    0.000000
      2          8           0       -1.536200    0.744600   -1.109600
      3          8           0        0.463300    0.942400    0.809500
      4          8           0        0.463300   -0.942400   -0.809500
      5          8           0       -1.536200   -0.744500    1.109600
      6          1           0       -2.298100   -1.232500    0.808100
      7          6           0        1.770800   -0.707100   -0.302200
      8          1           0        2.003900   -1.455300    0.460400
      9          1           0        2.491600   -0.798200   -1.114400
     10          6           0        1.770800    0.707100    0.302200
     11          1           0        2.003800    1.455300   -0.460400
     12          1           0        2.491600    0.798200    1.114400
 ---------------------------------------------------------------------
                    Distance matrix (angstroms):
                    1          2          3          4          5
     1  Si   0.000000
     2  O    1.628391   0.000000
     3  O    1.638888   2.778501   0.000000
     4  O    1.638888   2.633254   2.484679   0.000000
     5  O    1.628345   2.672502   2.633190   2.778508   0.000000
     6  H    2.244246   2.857794   3.515042   3.213428   0.953697
     7  C    2.497717   3.700754   2.380396   1.422067   3.595946
     8  H    3.023137   4.453849   2.871286   2.061349   3.668652
     9  H    3.386984   4.313169   3.293187   2.056151   4.601329
    10  C    2.497717   3.595947   1.422067   2.380396   3.700714
    11  H    3.023051   3.668536   2.061275   2.871233   4.453720
    12  H    3.386984   4.601328   2.056151   3.293187   4.313133
                    6          7          8          9         10
     6  H    0.000000
     7  C    4.250266   0.000000
     8  H    4.321775   1.093480   0.000000
     9  H    5.179368   1.089734   1.774719   0.000000
    10  C    4.535849   1.537941   2.180673   2.189118   0.000000
    11  H    5.228738   2.180663   3.052780   2.396649   1.093458
    12  H    5.211409   2.189118   2.396629   2.741540   1.089734
                   11         12
    11  H    0.000000
    12  H    1.774746   0.000000
 Stoichiometry    C2H5O4Si(1-)
 Framework group  C1[X(C2H5O4Si)]
 Deg. of freedom    30
 Full point group                 C1      NOp   1
 Largest Abelian subgroup         C1      NOp   1
 Largest concise Abelian subgroup C1      NOp   1
                         Standard orientation:                         
 ---------------------------------------------------------------------
 Center     Atomic      Atomic             Coordinates (Angstroms)
 Number     Number       Type             X           Y           Z
 ---------------------------------------------------------------------
      1         14           0       -0.640323   -0.023595    0.047221
      2          8           0       -1.513832   -0.118178    1.418241
      3          8           0        0.443946   -1.224530   -0.213679
      4          8           0        0.410960    1.221658    0.220725
      5          8           0       -1.626055    0.032320   -1.247659
      6          1           0       -2.398593    0.589926   -1.205263
      7          6           0        1.713688    0.787910   -0.149465
      8          1           0        1.898836    1.047902   -1.195324
      9          1           0        2.450213    1.294979    0.473377
     10          6           0        1.753470   -0.736573    0.049607
     11          1           0        2.033932   -0.986903    1.076411
     12          1           0        2.457030   -1.213758   -0.632170
 ---------------------------------------------------------------------
 Rotational constants (GHZ):           3.8504578           1.9675783           1.9280364
 Standard basis: def2TZVPP (5D, 7F)
 There are   339 symmetry adapted cartesian basis functions of A   symmetry.
 There are   298 symmetry adapted basis functions of A   symmetry.
   298 basis functions,   460 primitive gaussians,   339 cartesian basis functions
    32 alpha electrons       32 beta electrons
       nuclear repulsion energy       417.9271247949 Hartrees.
 NAtoms=   12 NActive=   12 NUniq=   12 SFac= 1.00D+00 NAtFMM=   60 NAOKFM=F Big=F
 Integral buffers will be    131072 words long.
 Raffenetti 2 integral format.
 Two-electron integral symmetry is turned on.
 Nuclear repulsion after empirical dispersion term =      417.9226843417 Hartrees.
 One-electron integrals computed using PRISM.
   1 Symmetry operations used in ECPInt.
 ECPInt:  NShTT=    6105 NPrTT=   17760 LenC2=    5980 LenP2D=   14105.
 LDataN:  DoStor=T MaxTD1= 6 Len=  172
 NBasis=   298 RedAO= T EigKep=  3.44D-04  NBF=   298
 NBsUse=   298 1.00D-06 EigRej= -1.00D+00 NBFU=   298
 ExpMin= 7.01D-02 ExpMax= 4.48D+04 ExpMxC= 1.53D+03 IAcc=3 IRadAn=         5 AccDes= 0.00D+00
 Harris functional with IExCor= 4639 and IRadAn=       5 diagonalized for initial guess.
 HarFok:  IExCor= 4639 AccDes= 0.00D+00 IRadAn=         5 IDoV= 1 UseB2=F ITyADJ=14
 ICtDFT=  3500011 ScaDFX=  1.000000  1.000000  1.000000  1.000000
 FoFCou: FMM=F IPFlag=           0 FMFlag=      100000 FMFlg1=           0
         NFxFlg=           0 DoJE=T BraDBF=F KetDBF=T FulRan=T
         wScrn=  0.000000 ICntrl=       500 IOpCl=  0 I1Cent=   200000004 NGrid=           0
         NMat0=    1 NMatS0=      1 NMatT0=    0 NMatD0=    1 NMtDS0=    0 NMtDT0=    0
 Petite list used in FoFCou.
 Requested convergence on RMS density matrix=1.00D-08 within 128 cycles.
 Requested convergence on MAX density matrix=1.00D-06.
 Requested convergence on             energy=1.00D-06.
 No special actions if energy rises.
 Integral accuracy reduced to 1.0D-05 until final iterations.
 Initial convergence to 1.0D-05 achieved.  Increase integral accuracy.
 SCF Done:  E(RwB97XD) =  -669.854869801     A.U. after   15 cycles
            NFock= 15  Conv=0.63D-08     -V/T= 2.0032

 **********************************************************************

            Population analysis using the SCF Density.

 **********************************************************************

 Orbital symmetries:
       Occupied  (A) (A) (A) (A) (A) (A) (A) (A) (A) (A) (A) (A)
                 (A) (A) (A) (A) (A) (A) (A) (A) (A) (A) (A) (A)
                 (A) (A) (A) (A) (A) (A) (A) (A)
       Virtual   (A) (A) (A) (A) (A) (A) (A) (A) (A) (A) (A) (A)
                 (A) (A) (A) (A) (A) (A) (A) (A) (A) (A) (A) (A)
                 (A) (A) (A) (A) (A) (A) (A) (A) (A) (A) (A) (A)
                 (A) (A) (A) (A) (A) (A) (A) (A) (A) (A) (A) (A)
                 (A) (A) (A) (A) (A) (A) (A) (A) (A) (A) (A) (A)
                 (A) (A) (A) (A) (A) (A) (A) (A) (A) (A) (A) (A)
                 (A) (A) (A) (A) (A) (A) (A) (A) (A) (A) (A) (A)
                 (A) (A) (A) (A) (A) (A) (A) (A) (A) (A) (A) (A)
                 (A) (A) (A) (A) (A) (A) (A) (A) (A) (A) (A) (A)
                 (A) (A) (A) (A) (A) (A) (A) (A) (A) (A) (A) (A)
                 (A) (A) (A) (A) (A) (A) (A) (A) (A) (A) (A) (A)
                 (A) (A) (A) (A) (A) (A) (A) (A) (A) (A) (A) (A)
                 (A) (A) (A) (A) (A) (A) (A) (A) (A) (A) (A) (A)
                 (A) (A) (A) (A) (A) (A) (A) (A) (A) (A) (A) (A)
                 (A) (A) (A) (A) (A) (A) (A) (A) (A) (A) (A) (A)
                 (A) (A) (A) (A) (A) (A) (A) (A) (A) (A) (A) (A)
                 (A) (A) (A) (A) (A) (A) (A) (A) (A) (A) (A) (A)
                 (A) (A) (A) (A) (A) (A) (A) (A) (A) (A) (A) (A)
                 (A) (A) (A) (A) (A) (A) (A) (A) (A) (A) (A) (A)
                 (A) (A) (A) (A) (A) (A) (A) (A) (A) (A) (A) (A)
                 (A) (A) (A) (A) (A) (A) (A) (A) (A) (A) (A) (A)
                 (A) (A) (A) (A) (A) (A) (A) (A) (A) (A) (A) (A)
                 (A) (A)
 The electronic state is 1-A.
 Alpha  occ. eigenvalues --  -66.07042 -19.07333 -19.06867 -19.06461 -18.92121
 Alpha  occ. eigenvalues --  -10.19192 -10.19148  -5.19000  -3.53666  -3.53525
 Alpha  occ. eigenvalues --   -3.53193  -0.98012  -0.92365  -0.92032  -0.72210
 Alpha  occ. eigenvalues --   -0.67960  -0.56293  -0.46919  -0.43957  -0.42791
 Alpha  occ. eigenvalues --   -0.39445  -0.35605  -0.35108  -0.29172  -0.26402
 Alpha  occ. eigenvalues --   -0.25554  -0.25173  -0.22789  -0.20109  -0.15811
 Alpha  occ. eigenvalues --   -0.09891  -0.09182
 Alpha virt. eigenvalues --    0.24752   0.26151   0.28064   0.29046   0.30148
 Alpha virt. eigenvalues --    0.33769   0.35173   0.36923   0.39330   0.40120
 Alpha virt. eigenvalues --    0.40333   0.42345   0.44471   0.47242   0.48815
 Alpha virt. eigenvalues --    0.49962   0.53895   0.54622   0.56990   0.57195
 Alpha virt. eigenvalues --    0.58426   0.59532   0.60812   0.61665   0.62041
 Alpha virt. eigenvalues --    0.65223   0.66784   0.68254   0.68985   0.71394
 Alpha virt. eigenvalues --    0.72776   0.73834   0.74126   0.74887   0.77431
 Alpha virt. eigenvalues --    0.80315   0.80783   0.81948   0.86195   0.88549
 Alpha virt. eigenvalues --    0.90599   0.91619   0.93737   0.94769   0.98694
 Alpha virt. eigenvalues --    0.99743   0.99969   1.01356   1.01679   1.05030
 Alpha virt. eigenvalues --    1.06304   1.08289   1.08842   1.14636   1.15447
 Alpha virt. eigenvalues --    1.17948   1.19778   1.22657   1.23356   1.24935
 Alpha virt. eigenvalues --    1.26712   1.27141   1.30775   1.33247   1.34786
 Alpha virt. eigenvalues --    1.37601   1.38233   1.40045   1.41162   1.43945
 Alpha virt. eigenvalues --    1.44417   1.46735   1.49190   1.52721   1.54893
 Alpha virt. eigenvalues --    1.56075   1.58590   1.60787   1.62912   1.63769
 Alpha virt. eigenvalues --    1.64498   1.70062   1.72007   1.74325   1.74966
 Alpha virt. eigenvalues --    1.77854   1.78657   1.83456   1.85244   1.95297
 Alpha virt. eigenvalues --    1.96829   1.98415   2.00791   2.02150   2.02913
 Alpha virt. eigenvalues --    2.07161   2.11705   2.13216   2.20377   2.20784
 Alpha virt. eigenvalues --    2.22772   2.24857   2.26939   2.31737   2.35998
 Alpha virt. eigenvalues --    2.39816   2.41634   2.42879   2.46048   2.47578
 Alpha virt. eigenvalues --    2.51514   2.51847   2.53820   2.57301   2.59887
 Alpha virt. eigenvalues --    2.63119   2.67102   2.79432   2.81504   2.82953
 Alpha virt. eigenvalues --    2.84392   2.89952   2.94352   2.96076   2.98865
 Alpha virt. eigenvalues --    3.01364   3.04964   3.07328   3.10547   3.13874
 Alpha virt. eigenvalues --    3.16793   3.18627   3.19584   3.21019   3.21669
 Alpha virt. eigenvalues --    3.22598   3.27957   3.31826   3.34730   3.36434
 Alpha virt. eigenvalues --    3.38185   3.38829   3.42370   3.43425   3.49106
 Alpha virt. eigenvalues --    3.49960   3.52215   3.52663   3.53463   3.61636
 Alpha virt. eigenvalues --    3.64432   3.65343   3.67297   3.73377   3.76983
 Alpha virt. eigenvalues --    3.77903   3.84581   3.87115   3.88271   3.89826
 Alpha virt. eigenvalues --    3.93128   3.94441   3.95649   3.97320   4.02665
 Alpha virt. eigenvalues --    4.05475   4.07973   4.13977   4.14973   4.19660
 Alpha virt. eigenvalues --    4.20686   4.26919   4.30410   4.33099   4.34032
 Alpha virt. eigenvalues --    4.34409   4.38151   4.40497   4.45724   4.47342
 Alpha virt. eigenvalues --    4.53475   4.55848   4.60522   4.72103   4.73816
 Alpha virt. eigenvalues --    4.78377   4.78932   4.85146   4.90224   4.96840
 Alpha virt. eigenvalues --    4.98467   4.99261   5.04918   5.10430   5.14465
 Alpha virt. eigenvalues --    5.16488   5.18409   5.20810   5.27776   5.30661
 Alpha virt. eigenvalues --    5.36083   5.38070   5.39864   5.46486   5.48865
 Alpha virt. eigenvalues --    5.51022   5.53535   5.56039   5.56505   5.57689
 Alpha virt. eigenvalues --    5.61846   5.62503   5.64866   5.66921   5.68248
 Alpha virt. eigenvalues --    5.69172   5.72993   5.74370   5.78419   5.80489
 Alpha virt. eigenvalues --    5.83991   5.85190   5.85471   5.91739   5.99026
 Alpha virt. eigenvalues --    6.05520   6.13097   6.16425   6.21303   6.26752
 Alpha virt. eigenvalues --    6.30610   6.37994   6.43851   6.69522   6.71172
 Alpha virt. eigenvalues --    6.73879   6.82728   6.86280   6.88369   6.91487
 Alpha virt. eigenvalues --    6.96001   6.96466   6.97335   7.00274   7.01724
 Alpha virt. eigenvalues --    7.05810   7.07956   7.13728   7.16999   7.22439
 Alpha virt. eigenvalues --    7.28562   7.31496   7.38241   7.47344   7.53871
 Alpha virt. eigenvalues --    7.59556   7.74477   7.86396   8.07249  12.46947
 Alpha virt. eigenvalues --   23.44682  23.57770  43.92377  44.07398  44.27280
 Alpha virt. eigenvalues --   44.42083
          Condensed to atoms (all electrons):
               1          2          3          4          5          6
     1  Si  11.725020   0.790403   0.344719   0.325051   0.399480  -0.035394
     2  O    0.790403   8.197846  -0.038676  -0.050349  -0.059242  -0.001260
     3  O    0.344719  -0.038676   7.966033  -0.017764  -0.022335   0.001554
     4  O    0.325051  -0.050349  -0.017764   7.987318  -0.028987  -0.000733
     5  O    0.399480  -0.059242  -0.022335  -0.028987   7.829947   0.335655
     6  H   -0.035394  -0.001260   0.001554  -0.000733   0.335655   0.531978
     7  C   -0.099703  -0.007729  -0.071025   0.338368  -0.004281  -0.000204
     8  H   -0.007979  -0.000538   0.008524  -0.050768   0.001513   0.000068
     9  H    0.000895  -0.000346   0.005249  -0.041311  -0.000184   0.000004
    10  C   -0.105038  -0.011105   0.335930  -0.066289  -0.000861  -0.000255
    11  H    0.009129   0.001971  -0.047126   0.004825  -0.000170   0.000028
    12  H   -0.001700  -0.000149  -0.045045   0.005219   0.000127   0.000012
               7          8          9         10         11         12
     1  Si  -0.099703  -0.007979   0.000895  -0.105038   0.009129  -0.001700
     2  O   -0.007729  -0.000538  -0.000346  -0.011105   0.001971  -0.000149
     3  O   -0.071025   0.008524   0.005249   0.335930  -0.047126  -0.045045
     4  O    0.338368  -0.050768  -0.041311  -0.066289   0.004825   0.005219
     5  O   -0.004281   0.001513  -0.000184  -0.000861  -0.000170   0.000127
     6  H   -0.000204   0.000068   0.000004  -0.000255   0.000028   0.000012
     7  C    4.747718   0.411092   0.375707   0.295526  -0.048964  -0.009285
     8  H    0.411092   0.743708  -0.074513  -0.054957   0.015786  -0.019065
     9  H    0.375707  -0.074513   0.730605  -0.017185  -0.016891   0.009858
    10  C    0.295526  -0.054957  -0.017185   4.766183   0.405860   0.370176
    11  H   -0.048964   0.015786  -0.016891   0.405860   0.717702  -0.079608
    12  H   -0.009285  -0.019065   0.009858   0.370176  -0.079608   0.744514
 Mulliken charges:
               1
     1  Si   0.655117
     2  O   -0.820827
     3  O   -0.420039
     4  O   -0.404579
     5  O   -0.450662
     6  H    0.168548
     7  C    0.072782
     8  H    0.027131
     9  H    0.028113
    10  C    0.082013
    11  H    0.037457
    12  H    0.024946
 Sum of Mulliken charges =  -1.00000
 Mulliken charges with hydrogens summed into heavy atoms:
               1
     1  Si   0.655117
     2  O   -0.820827
     3  O   -0.420039
     4  O   -0.404579
     5  O   -0.282114
     7  C    0.128026
    10  C    0.144416
 Electronic spatial extent (au):  <R**2>=            770.4342
 Charge=             -1.0000 electrons
 Dipole moment (field-independent basis, Debye):
    X=              5.4557    Y=              1.2172    Z=             -4.1706  Tot=              6.9742
 Quadrupole moment (field-independent basis, Debye-Ang):
   XX=            -53.8927   YY=            -54.5820   ZZ=            -60.7331
   XY=             -3.2657   XZ=              8.4421   YZ=             -1.6899
 Traceless Quadrupole moment (field-independent basis, Debye-Ang):
   XX=              2.5099   YY=              1.8206   ZZ=             -4.3305
   XY=             -3.2657   XZ=              8.4421   YZ=             -1.6899
 Octapole moment (field-independent basis, Debye-Ang**2):
  XXX=              0.9498  YYY=              0.7330  ZZZ=            -12.6555  XYY=             -4.7059
  XXY=              8.1062  XXZ=            -17.5153  XZZ=             16.1097  YZZ=              2.4097
  YYZ=             -2.4208  XYZ=              1.7747
 Hexadecapole moment (field-independent basis, Debye-Ang**3):
 XXXX=           -572.3712 YYYY=           -233.4120 ZZZZ=           -244.3982 XXXY=            -21.6305
 XXXZ=             48.4445 YYYX=             -2.9813 YYYZ=             -1.1472 ZZZX=             23.1822
 ZZZY=              0.0237 XXYY=           -128.2565 XXZZ=           -151.8799 YYZZ=            -72.8909
 XXYZ=             -4.1139 YYXZ=              6.3338 ZZXY=             -6.2662
 N-N= 4.179226843417D+02 E-N=-2.435417409012D+03  KE= 6.677476526125D+02
   1 Symmetry operations used in ECPInt.
 ECPInt:  NShTT=    6105 NPrTT=   17760 LenC2=    5980 LenP2D=   14105.
 LDataN:  DoStor=T MaxTD1= 7 Len=  274
 Calling FoFJK, ICntrl=      2127 FMM=F ISym2X=0 I1Cent= 0 IOpClX= 0 NMat=1 NMatS=1 NMatT=0.
 ***** Axes restored to original set *****
 -------------------------------------------------------------------
 Center     Atomic                   Forces (Hartrees/Bohr)
 Number     Number              X              Y              Z
 -------------------------------------------------------------------
      1       14          -0.088036693    0.060565870   -0.087602814
      2        8           0.027590900   -0.023644900    0.040065827
      3        8           0.031900683    0.000888484    0.015169212
      4        8           0.039856517   -0.020054257    0.006310067
      5        8           0.001439237   -0.022761672    0.030398174
      6        1           0.003714550    0.007531965   -0.005332841
      7        6          -0.013294072   -0.002712046   -0.005492823
      8        1           0.003129128   -0.001118406    0.003026822
      9        1           0.003054625   -0.000186541   -0.001280658
     10        6          -0.013194843    0.000775619    0.005157729
     11        1           0.000412619    0.000564420   -0.001905791
     12        1           0.003427350    0.000151464    0.001487096
 -------------------------------------------------------------------
 Cartesian Forces:  Max     0.088036693 RMS     0.027540720

 GradGradGradGradGradGradGradGradGradGradGradGradGradGradGradGradGradGrad
 Berny optimization.
 FormGI is forming the generalized inverse of G from B-inverse, IUseBI=4.
 Internal  Forces:  Max     0.053879789 RMS     0.011350306
 Search for a local minimum.
 Step number   1 out of a maximum of   67
 All quantities printed in internal units (Hartrees-Bohrs-Radians)
 Mixed Optimization -- RFO/linear search
 Second derivative matrix not updated -- first step.
 ITU=  0
     Eigenvalues ---    0.00798   0.02930   0.03964   0.04822   0.04941
     Eigenvalues ---    0.05722   0.06097   0.10424   0.10960   0.11234
     Eigenvalues ---    0.11285   0.12884   0.13885   0.15569   0.16000
     Eigenvalues ---    0.17471   0.22143   0.22613   0.27852   0.34414
     Eigenvalues ---    0.34416   0.34843   0.34843   0.39529   0.40391
     Eigenvalues ---    0.42891   0.43858   0.46098   0.46105   0.56852
 RFO step:  Lambda=-2.44436897D-02 EMin= 7.97697657D-03
 Linear search not attempted -- first point.
 Iteration  1 RMS(Cart)=  0.03907029 RMS(Int)=  0.00316917
 Iteration  2 RMS(Cart)=  0.00281766 RMS(Int)=  0.00190977
 Iteration  3 RMS(Cart)=  0.00001274 RMS(Int)=  0.00190974
 Iteration  4 RMS(Cart)=  0.00000007 RMS(Int)=  0.00190974
 Variable       Old X    -DE/DX   Delta X   Delta X   Delta X     New X
                                 (Linear)    (Quad)   (Total)
    R1        3.07721  -0.05388   0.00000  -0.11100  -0.11100   2.96622
    R2        3.09705   0.02532   0.00000   0.05914   0.06041   3.15746
    R3        3.09705   0.03118   0.00000   0.07425   0.07556   3.17261
    R4        3.07713   0.02110   0.00000   0.04345   0.04345   3.12058
    R5        2.68732  -0.00817   0.00000  -0.02329  -0.02403   2.66328
    R6        2.68732  -0.00921   0.00000  -0.02178  -0.02243   2.66488
    R7        1.80223  -0.00513   0.00000  -0.00866  -0.00866   1.79357
    R8        2.06638   0.00354   0.00000   0.00962   0.00962   2.07599
    R9        2.05930   0.00299   0.00000   0.00802   0.00802   2.06732
   R10        2.90629   0.00200   0.00000  -0.00590  -0.00745   2.89884
   R11        2.06634   0.00180   0.00000   0.00489   0.00489   2.07123
   R12        2.05930   0.00339   0.00000   0.00909   0.00909   2.06839
    A1        2.03349   0.00849   0.00000   0.05245   0.05258   2.08607
    A2        1.87454   0.01580   0.00000   0.09466   0.09489   1.96943
    A3        1.92495   0.00688   0.00000   0.05176   0.05359   1.97854
    A4        1.72060  -0.01459   0.00000  -0.05799  -0.06105   1.65954
    A5        1.87451  -0.00678   0.00000  -0.06922  -0.07568   1.79883
    A6        2.03355  -0.01220   0.00000  -0.08534  -0.09043   1.94311
    A7        1.90532   0.00362   0.00000   0.02105   0.02271   1.92803
    A8        1.90532   0.00418   0.00000   0.03154   0.03327   1.93859
    A9        2.06587  -0.01385   0.00000  -0.07510  -0.07510   1.99076
   A10        1.90876   0.00157   0.00000   0.01871   0.01882   1.92759
   A11        1.90545  -0.00146   0.00000   0.00628   0.00713   1.91258
   A12        1.86747   0.00355   0.00000  -0.00156  -0.00306   1.86442
   A13        1.89820   0.00014   0.00000  -0.00633  -0.00662   1.89158
   A14        1.93383  -0.00487   0.00000  -0.01591  -0.01516   1.91866
   A15        1.94957   0.00115   0.00000  -0.00017  -0.00027   1.94929
   A16        1.86747   0.00334   0.00000   0.00071  -0.00061   1.86686
   A17        1.90868  -0.00030   0.00000   0.00494   0.00501   1.91369
   A18        1.90545  -0.00055   0.00000   0.00696   0.00773   1.91318
   A19        1.93383   0.00106   0.00000   0.00104   0.00141   1.93524
   A20        1.94957  -0.00397   0.00000  -0.01214  -0.01193   1.93764
   A21        1.89827   0.00047   0.00000  -0.00102  -0.00118   1.89709
    D1       -1.82367  -0.00452   0.00000  -0.03165  -0.03257  -1.85624
    D2        0.17321   0.00852   0.00000   0.06528   0.06291   0.23612
    D3        2.29135  -0.01422   0.00000  -0.08157  -0.07776   2.21360
    D4        2.29131   0.00039   0.00000   0.01126   0.01210   2.30341
    D5        0.17321  -0.00815   0.00000  -0.05519  -0.05234   0.12088
    D6       -1.82366   0.01366   0.00000   0.09601   0.09162  -1.73205
    D7        0.75200   0.00044   0.00000  -0.01255  -0.01262   0.73939
    D8        2.98468   0.01107   0.00000   0.04005   0.03478   3.01946
    D9       -1.39020  -0.01735   0.00000  -0.11862  -0.11329  -1.50349
   D10       -0.43585  -0.00611   0.00000  -0.05410  -0.05428  -0.49013
   D11        1.65970  -0.00306   0.00000  -0.04970  -0.05015   1.60955
   D12       -2.54846  -0.00300   0.00000  -0.04388  -0.04395  -2.59240
   D13        1.65974   0.00269   0.00000   0.02100   0.02010   1.67984
   D14       -2.54846   0.00292   0.00000   0.02810   0.02772  -2.52073
   D15       -0.43585   0.00557   0.00000   0.03054   0.02962  -0.40623
   D16        0.55722   0.00167   0.00000   0.01041   0.00978   0.56700
   D17       -1.52215  -0.00058   0.00000   0.00343   0.00330  -1.51885
   D18        2.64162   0.00081   0.00000   0.01236   0.01197   2.65359
   D19       -1.52224   0.00036   0.00000  -0.00231  -0.00258  -1.52483
   D20        2.68157  -0.00189   0.00000  -0.00929  -0.00906   2.67251
   D21        0.56215  -0.00050   0.00000  -0.00035  -0.00039   0.56176
   D22        2.64162   0.00279   0.00000   0.01701   0.01639   2.65801
   D23        0.56224   0.00054   0.00000   0.01003   0.00992   0.57216
   D24       -1.55718   0.00193   0.00000   0.01896   0.01859  -1.53859
         Item               Value     Threshold  Converged?
 Maximum Force            0.053880     0.000450     NO 
 RMS     Force            0.011350     0.000300     NO 
 Maximum Displacement     0.124903     0.001800     NO 
 RMS     Displacement     0.040134     0.001200     NO 
 Predicted change in Energy=-1.318442D-02
 GradGradGradGradGradGradGradGradGradGradGradGradGradGradGradGradGradGrad

                          Input orientation:                          
 ---------------------------------------------------------------------
 Center     Atomic      Atomic             Coordinates (Angstroms)
 Number     Number       Type             X           Y           Z
 ---------------------------------------------------------------------
      1         14           0       -0.659467    0.050016   -0.066096
      2          8           0       -1.599686    0.779296   -1.089792
      3          8           0        0.464381    0.936562    0.795742
      4          8           0        0.472553   -0.940280   -0.812062
      5          8           0       -1.480972   -0.760424    1.115105
      6          1           0       -2.236705   -1.240955    0.800815
      7          6           0        1.764006   -0.715093   -0.292356
      8          1           0        1.996235   -1.450250    0.490248
      9          1           0        2.503840   -0.816931   -1.091768
     10          6           0        1.762949    0.698978    0.302245
     11          1           0        2.008626    1.444580   -0.462633
     12          1           0        2.487239    0.782101    1.118651
 ---------------------------------------------------------------------
                    Distance matrix (angstroms):
                    1          2          3          4          5
     1  Si   0.000000
     2  O    1.569655   0.000000
     3  O    1.670857   2.800062   0.000000
     4  O    1.678875   2.707075   2.471364   0.000000
     5  O    1.651338   2.691914   2.601183   2.750014   0.000000
     6  H    2.214909   2.839296   3.469506   3.167311   0.949115
     7  C    2.551432   3.766102   2.366632   1.410196   3.537355
     8  H    3.100495   4.516420   2.852503   2.068256   3.599621
     9  H    3.436584   4.403053   3.285853   2.054161   4.555459
    10  C    2.534744   3.640266   1.409349   2.365157   3.648783
    11  H    3.036572   3.722345   2.055793   2.858177   4.419117
    12  H    3.441123   4.645448   2.054284   3.279208   4.257475
                    6          7          8          9         10
     6  H    0.000000
     7  C    4.180579   0.000000
     8  H    4.249475   1.098569   0.000000
     9  H    5.121956   1.093977   1.778069   0.000000
    10  C    4.473158   1.533998   2.170011   2.188646   0.000000
    11  H    5.179888   2.180142   3.047650   2.399058   1.096046
    12  H    5.148730   2.180733   2.370520   2.728210   1.094543
                   11         12
    11  H    0.000000
    12  H    1.780002   0.000000
 Stoichiometry    C2H5O4Si(1-)
 Framework group  C1[X(C2H5O4Si)]
 Deg. of freedom    30
 Full point group                 C1      NOp   1
 Largest Abelian subgroup         C1      NOp   1
 Largest concise Abelian subgroup C1      NOp   1
                         Standard orientation:                         
 ---------------------------------------------------------------------
 Center     Atomic      Atomic             Coordinates (Angstroms)
 Number     Number       Type             X           Y           Z
 ---------------------------------------------------------------------
      1         14           0       -0.682691   -0.055831    0.080512
      2          8           0       -1.607960   -0.619296    1.216382
      3          8           0        0.449240   -1.057250   -0.631987
      4          8           0        0.439032    1.057889    0.646185
      5          8           0       -1.520816    0.539218   -1.211920
      6          1           0       -2.281631    1.055052   -0.975495
      7          6           0        1.731024    0.767097    0.161573
      8          1           0        1.949424    1.366818   -0.732569
      9          1           0        2.473114    1.008202    0.928356
     10          6           0        1.746700   -0.725260   -0.193072
     11          1           0        2.006217   -1.332054    0.682011
     12          1           0        2.468242   -0.931888   -0.989757
 ---------------------------------------------------------------------
 Rotational constants (GHZ):           3.8395439           1.9450960           1.9242557
 Standard basis: def2TZVPP (5D, 7F)
 There are   339 symmetry adapted cartesian basis functions of A   symmetry.
 There are   298 symmetry adapted basis functions of A   symmetry.
   298 basis functions,   460 primitive gaussians,   339 cartesian basis functions
    32 alpha electrons       32 beta electrons
       nuclear repulsion energy       416.8909886233 Hartrees.
 NAtoms=   12 NActive=   12 NUniq=   12 SFac= 1.00D+00 NAtFMM=   60 NAOKFM=F Big=F
 Integral buffers will be    131072 words long.
 Raffenetti 2 integral format.
 Two-electron integral symmetry is turned on.
 Nuclear repulsion after empirical dispersion term =      416.8865170479 Hartrees.
 One-electron integrals computed using PRISM.
   1 Symmetry operations used in ECPInt.
 ECPInt:  NShTT=    6105 NPrTT=   17760 LenC2=    5982 LenP2D=   14097.
 LDataN:  DoStor=T MaxTD1= 6 Len=  172
 NBasis=   298 RedAO= T EigKep=  3.46D-04  NBF=   298
 NBsUse=   298 1.00D-06 EigRej= -1.00D+00 NBFU=   298
 Initial guess from the checkpoint file:  "QbiL_deprotonated_Opt.chk"
 B after Tr=    -0.000000   -0.000000   -0.000000
         Rot=    0.982295   -0.186563    0.015375    0.007357 Ang= -21.60 deg.
 ExpMin= 7.01D-02 ExpMax= 4.48D+04 ExpMxC= 1.53D+03 IAcc=3 IRadAn=         5 AccDes= 0.00D+00
 Harris functional with IExCor= 4639 and IRadAn=       5 diagonalized for initial guess.
 HarFok:  IExCor= 4639 AccDes= 0.00D+00 IRadAn=         5 IDoV= 1 UseB2=F ITyADJ=14
 ICtDFT=  3500011 ScaDFX=  1.000000  1.000000  1.000000  1.000000
 FoFCou: FMM=F IPFlag=           0 FMFlag=      100000 FMFlg1=           0
         NFxFlg=           0 DoJE=T BraDBF=F KetDBF=T FulRan=T
         wScrn=  0.000000 ICntrl=       500 IOpCl=  0 I1Cent=   200000004 NGrid=           0
         NMat0=    1 NMatS0=      1 NMatT0=    0 NMatD0=    1 NMtDS0=    0 NMtDT0=    0
 Petite list used in FoFCou.
 Requested convergence on RMS density matrix=1.00D-08 within 128 cycles.
 Requested convergence on MAX density matrix=1.00D-06.
 Requested convergence on             energy=1.00D-06.
 No special actions if energy rises.
 Integral accuracy reduced to 1.0D-05 until final iterations.
 Initial convergence to 1.0D-05 achieved.  Increase integral accuracy.
 SCF Done:  E(RwB97XD) =  -669.872291800     A.U. after   13 cycles
            NFock= 13  Conv=0.69D-08     -V/T= 2.0032
   1 Symmetry operations used in ECPInt.
 ECPInt:  NShTT=    6105 NPrTT=   17760 LenC2=    5982 LenP2D=   14097.
 LDataN:  DoStor=T MaxTD1= 7 Len=  274
 Calling FoFJK, ICntrl=      2127 FMM=F ISym2X=0 I1Cent= 0 IOpClX= 0 NMat=1 NMatS=1 NMatT=0.
 ***** Axes restored to original set *****
 -------------------------------------------------------------------
 Center     Atomic                   Forces (Hartrees/Bohr)
 Number     Number              X              Y              Z
 -------------------------------------------------------------------
      1       14          -0.032824337    0.027163283   -0.036905614
      2        8           0.011607558   -0.010683845    0.014952655
      3        8           0.015164090    0.001499178    0.006362284
      4        8           0.017695608   -0.008412520    0.003220750
      5        8           0.005320496   -0.011836955    0.015974407
      6        1          -0.003511226    0.002530911   -0.003946209
      7        6          -0.010142077   -0.002064437   -0.003702116
      8        1           0.000515746   -0.000690921    0.000546432
      9        1           0.001602840   -0.000143850   -0.000042302
     10        6          -0.008188548    0.001497449    0.005116046
     11        1           0.001357051    0.000075348   -0.001490981
     12        1           0.001402799    0.001066359   -0.000085352
 -------------------------------------------------------------------
 Cartesian Forces:  Max     0.036905614 RMS     0.011787169

 GradGradGradGradGradGradGradGradGradGradGradGradGradGradGradGradGradGrad
 Berny optimization.
 Using GEDIIS/GDIIS optimizer.
 FormGI is forming the generalized inverse of G from B-inverse, IUseBI=4.
 Internal  Forces:  Max     0.021669418 RMS     0.004873936
 Search for a local minimum.
 Step number   2 out of a maximum of   67
 All quantities printed in internal units (Hartrees-Bohrs-Radians)
 Mixed Optimization -- RFO/linear search
 Update second derivatives using D2CorX and points    1    2
 DE= -1.74D-02 DEPred=-1.32D-02 R= 1.32D+00
 TightC=F SS=  1.41D+00  RLast= 3.35D-01 DXNew= 5.0454D-01 1.0064D+00
 Trust test= 1.32D+00 RLast= 3.35D-01 DXMaxT set to 5.05D-01
 ITU=  1  0
 Use linear search instead of GDIIS.
     Eigenvalues ---    0.00806   0.02924   0.03902   0.04834   0.04950
     Eigenvalues ---    0.05800   0.06136   0.09855   0.10417   0.11148
     Eigenvalues ---    0.11225   0.12575   0.13229   0.15104   0.15880
     Eigenvalues ---    0.16537   0.22018   0.22561   0.27898   0.34011
     Eigenvalues ---    0.34425   0.34646   0.34845   0.35177   0.39499
     Eigenvalues ---    0.42632   0.43811   0.43956   0.46318   0.57233
 RFO step:  Lambda=-1.31088865D-03 EMin= 8.05702313D-03
 Quartic linear search produced a step of  0.59340.
 Iteration  1 RMS(Cart)=  0.03704041 RMS(Int)=  0.00249659
 Iteration  2 RMS(Cart)=  0.00152974 RMS(Int)=  0.00176496
 Iteration  3 RMS(Cart)=  0.00000360 RMS(Int)=  0.00176495
 Iteration  4 RMS(Cart)=  0.00000002 RMS(Int)=  0.00176495
 Variable       Old X    -DE/DX   Delta X   Delta X   Delta X     New X
                                 (Linear)    (Quad)   (Total)
    R1        2.96622  -0.02167  -0.06587  -0.00880  -0.07466   2.89156
    R2        3.15746   0.01134   0.03585   0.00910   0.04609   3.20355
    R3        3.17261   0.01124   0.04484   0.00021   0.04627   3.21888
    R4        3.12058   0.01227   0.02578   0.01653   0.04232   3.16290
    R5        2.66328  -0.00599  -0.01426  -0.01108  -0.02607   2.63722
    R6        2.66488  -0.00751  -0.01331  -0.01693  -0.03081   2.63407
    R7        1.79357   0.00282  -0.00514   0.01296   0.00782   1.80139
    R8        2.07599   0.00096   0.00571  -0.00148   0.00423   2.08023
    R9        2.06732   0.00113   0.00476   0.00024   0.00499   2.07231
   R10        2.89884   0.00286  -0.00442   0.01205   0.00620   2.90504
   R11        2.07123   0.00140   0.00290   0.00345   0.00635   2.07758
   R12        2.06839   0.00095   0.00539  -0.00126   0.00413   2.07252
    A1        2.08607   0.00351   0.03120   0.00445   0.03535   2.12142
    A2        1.96943   0.00561   0.05631  -0.00720   0.04910   2.01853
    A3        1.97854   0.00358   0.03180   0.00299   0.03645   2.01499
    A4        1.65954  -0.00439  -0.03623   0.01283  -0.02607   1.63348
    A5        1.79883  -0.00315  -0.04491   0.00906  -0.04157   1.75726
    A6        1.94311  -0.00761  -0.05366  -0.02185  -0.07952   1.86359
    A7        1.92803   0.00040   0.01348  -0.00929   0.00586   1.93389
    A8        1.93859   0.00016   0.01974  -0.01749   0.00403   1.94262
    A9        1.99076  -0.00681  -0.04457  -0.01462  -0.05919   1.93158
   A10        1.92759  -0.00030   0.01117  -0.01492  -0.00361   1.92398
   A11        1.91258  -0.00099   0.00423   0.00386   0.00880   1.92138
   A12        1.86442   0.00302  -0.00181   0.01107   0.00789   1.87231
   A13        1.89158   0.00000  -0.00393  -0.00318  -0.00735   1.88423
   A14        1.91866  -0.00152  -0.00900   0.00570  -0.00254   1.91612
   A15        1.94929  -0.00021  -0.00016  -0.00271  -0.00309   1.94620
   A16        1.86686   0.00056  -0.00036  -0.00222  -0.00365   1.86322
   A17        1.91369   0.00134   0.00297   0.01546   0.01850   1.93219
   A18        1.91318  -0.00058   0.00458   0.00041   0.00559   1.91877
   A19        1.93524  -0.00059   0.00083  -0.01075  -0.00971   1.92553
   A20        1.93764  -0.00032  -0.00708   0.00902   0.00219   1.93982
   A21        1.89709  -0.00037  -0.00070  -0.01132  -0.01223   1.88486
    D1       -1.85624  -0.00234  -0.01933  -0.01868  -0.03893  -1.89517
    D2        0.23612   0.00294   0.03733  -0.01656   0.01893   0.25505
    D3        2.21360  -0.00691  -0.04614  -0.03389  -0.07662   2.13698
    D4        2.30341   0.00129   0.00718   0.03305   0.04123   2.34464
    D5        0.12088  -0.00250  -0.03106   0.02340  -0.00526   0.11562
    D6       -1.73205   0.00441   0.05436   0.01245   0.06230  -1.66975
    D7        0.73939  -0.00199  -0.00749  -0.05109  -0.05873   0.68065
    D8        3.01946   0.00250   0.02064  -0.03639  -0.02100   2.99846
    D9       -1.50349  -0.00617  -0.06722  -0.02485  -0.08667  -1.59016
   D10       -0.49013  -0.00166  -0.03221   0.00981  -0.02233  -0.51246
   D11        1.60955  -0.00129  -0.02976   0.00427  -0.02579   1.58376
   D12       -2.59240  -0.00128  -0.02608   0.00006  -0.02594  -2.61835
   D13        1.67984   0.00170   0.01193  -0.01754  -0.00648   1.67336
   D14       -2.52073   0.00090   0.01645  -0.02826  -0.01228  -2.53301
   D15       -0.40623   0.00189   0.01758  -0.02270  -0.00613  -0.41236
   D16        0.56700   0.00126   0.00580   0.01595   0.02127   0.58827
   D17       -1.51885  -0.00036   0.00196   0.00468   0.00662  -1.51223
   D18        2.65359   0.00072   0.00710   0.02020   0.02705   2.68064
   D19       -1.52483   0.00069  -0.00153   0.02415   0.02235  -1.50248
   D20        2.67251  -0.00094  -0.00538   0.01288   0.00770   2.68021
   D21        0.56176   0.00015  -0.00023   0.02840   0.02813   0.58989
   D22        2.65801   0.00184   0.00973   0.02609   0.03525   2.69326
   D23        0.57216   0.00021   0.00588   0.01482   0.02060   0.59276
   D24       -1.53859   0.00130   0.01103   0.03034   0.04104  -1.49755
         Item               Value     Threshold  Converged?
 Maximum Force            0.021669     0.000450     NO 
 RMS     Force            0.004874     0.000300     NO 
 Maximum Displacement     0.127012     0.001800     NO 
 RMS     Displacement     0.037306     0.001200     NO 
 Predicted change in Energy=-4.180982D-03
 GradGradGradGradGradGradGradGradGradGradGradGradGradGradGradGradGradGrad

                          Input orientation:                          
 ---------------------------------------------------------------------
 Center     Atomic      Atomic             Coordinates (Angstroms)
 Number     Number       Type             X           Y           Z
 ---------------------------------------------------------------------
      1         14           0       -0.684714    0.089284   -0.102616
      2          8           0       -1.642000    0.793744   -1.066299
      3          8           0        0.471848    0.951870    0.787420
      4          8           0        0.474346   -0.927617   -0.826445
      5          8           0       -1.413760   -0.798781    1.114435
      6          1           0       -2.184641   -1.252231    0.784554
      7          6           0        1.741238   -0.717758   -0.284346
      8          1           0        1.941568   -1.452165    0.510823
      9          1           0        2.507515   -0.840788   -1.059108
     10          6           0        1.756791    0.702702    0.303260
     11          1           0        2.028701    1.433580   -0.471710
     12          1           0        2.486108    0.785759    1.118130
 ---------------------------------------------------------------------
                    Distance matrix (angstroms):
                    1          2          3          4          5
     1  Si   0.000000
     2  O    1.530146   0.000000
     3  O    1.695245   2.815961   0.000000
     4  O    1.703360   2.738528   2.477305   0.000000
     5  O    1.673732   2.709949   2.593691   2.710822   0.000000
     6  H    2.199207   2.811784   3.451811   3.125844   0.953255
     7  C    2.563120   3.787135   2.355353   1.393890   3.452125
     8  H    3.106401   4.513688   2.831248   2.053333   3.471237
     9  H    3.459803   4.459846   3.281345   2.048280   4.483576
    10  C    2.549895   3.665483   1.395555   2.361957   3.600673
    11  H    3.050571   3.773192   2.059428   2.849055   4.398844
    12  H    3.468344   4.670446   2.047975   3.280887   4.209483
                    6          7          8          9         10
     6  H    0.000000
     7  C    4.103747   0.000000
     8  H    4.140109   1.100808   0.000000
     9  H    5.058132   1.096619   1.777290   0.000000
    10  C    4.425866   1.537279   2.172711   2.191345   0.000000
    11  H    5.152090   2.178531   3.049670   2.397300   1.099408
    12  H    5.106914   2.186854   2.381942   2.717807   1.096729
                   11         12
    11  H    0.000000
    12  H    1.776650   0.000000
 Stoichiometry    C2H5O4Si(1-)
 Framework group  C1[X(C2H5O4Si)]
 Deg. of freedom    30
 Full point group                 C1      NOp   1
 Largest Abelian subgroup         C1      NOp   1
 Largest concise Abelian subgroup C1      NOp   1
                         Standard orientation:                         
 ---------------------------------------------------------------------
 Center     Atomic      Atomic             Coordinates (Angstroms)
 Number     Number       Type             X           Y           Z
 ---------------------------------------------------------------------
      1         14           0       -0.706021   -0.094071    0.087669
      2          8           0       -1.670794   -0.810837    1.034667
      3          8           0        0.465894   -0.943728   -0.794688
      4          8           0        0.438607    0.923860    0.832705
      5          8           0       -1.425434    0.798867   -1.131546
      6          1           0       -2.202723    1.245636   -0.807641
      7          6           0        1.713038    0.724958    0.304315
      8          1           0        1.918740    1.466267   -0.483038
      9          1           0        2.469307    0.846519    1.089078
     10          6           0        1.743549   -0.691048   -0.293368
     11          1           0        2.010267   -1.426081    0.479474
     12          1           0        2.482999   -0.764113   -1.100021
 ---------------------------------------------------------------------
 Rotational constants (GHZ):           3.8113863           1.9541853           1.9278390
 Standard basis: def2TZVPP (5D, 7F)
 There are   339 symmetry adapted cartesian basis functions of A   symmetry.
 There are   298 symmetry adapted basis functions of A   symmetry.
   298 basis functions,   460 primitive gaussians,   339 cartesian basis functions
    32 alpha electrons       32 beta electrons
       nuclear repulsion energy       416.7573850071 Hartrees.
 NAtoms=   12 NActive=   12 NUniq=   12 SFac= 1.00D+00 NAtFMM=   60 NAOKFM=F Big=F
 Integral buffers will be    131072 words long.
 Raffenetti 2 integral format.
 Two-electron integral symmetry is turned on.
 Nuclear repulsion after empirical dispersion term =      416.7528768966 Hartrees.
 One-electron integrals computed using PRISM.
   1 Symmetry operations used in ECPInt.
 ECPInt:  NShTT=    6105 NPrTT=   17760 LenC2=    5984 LenP2D=   14094.
 LDataN:  DoStor=T MaxTD1= 6 Len=  172
 NBasis=   298 RedAO= T EigKep=  3.50D-04  NBF=   298
 NBsUse=   298 1.00D-06 EigRej= -1.00D+00 NBFU=   298
 Initial guess from the checkpoint file:  "QbiL_deprotonated_Opt.chk"
 B after Tr=     0.000000    0.000000   -0.000000
         Rot=    0.995878   -0.089817    0.011670    0.004887 Ang= -10.41 deg.
 ExpMin= 7.01D-02 ExpMax= 4.48D+04 ExpMxC= 1.53D+03 IAcc=3 IRadAn=         5 AccDes= 0.00D+00
 Harris functional with IExCor= 4639 and IRadAn=       5 diagonalized for initial guess.
 HarFok:  IExCor= 4639 AccDes= 0.00D+00 IRadAn=         5 IDoV= 1 UseB2=F ITyADJ=14
 ICtDFT=  3500011 ScaDFX=  1.000000  1.000000  1.000000  1.000000
 FoFCou: FMM=F IPFlag=           0 FMFlag=      100000 FMFlg1=           0
         NFxFlg=           0 DoJE=T BraDBF=F KetDBF=T FulRan=T
         wScrn=  0.000000 ICntrl=       500 IOpCl=  0 I1Cent=   200000004 NGrid=           0
         NMat0=    1 NMatS0=      1 NMatT0=    0 NMatD0=    1 NMtDS0=    0 NMtDT0=    0
 Petite list used in FoFCou.
 Requested convergence on RMS density matrix=1.00D-08 within 128 cycles.
 Requested convergence on MAX density matrix=1.00D-06.
 Requested convergence on             energy=1.00D-06.
 No special actions if energy rises.
 Integral accuracy reduced to 1.0D-05 until final iterations.
 Initial convergence to 1.0D-05 achieved.  Increase integral accuracy.
 SCF Done:  E(RwB97XD) =  -669.876153195     A.U. after   13 cycles
            NFock= 13  Conv=0.61D-08     -V/T= 2.0031
   1 Symmetry operations used in ECPInt.
 ECPInt:  NShTT=    6105 NPrTT=   17760 LenC2=    5984 LenP2D=   14094.
 LDataN:  DoStor=T MaxTD1= 7 Len=  274
 Calling FoFJK, ICntrl=      2127 FMM=F ISym2X=0 I1Cent= 0 IOpClX= 0 NMat=1 NMatS=1 NMatT=0.
 ***** Axes restored to original set *****
 -------------------------------------------------------------------
 Center     Atomic                   Forces (Hartrees/Bohr)
 Number     Number              X              Y              Z
 -------------------------------------------------------------------
      1       14           0.005080905   -0.002272153    0.002880082
      2        8          -0.007175387    0.004327326   -0.006001517
      3        8           0.000384003    0.002520762    0.000230796
      4        8           0.001505120    0.000500409   -0.001596273
      5        8           0.001209037   -0.005185348    0.003309472
      6        1          -0.001911880    0.002493249   -0.000401082
      7        6          -0.000970710   -0.001761268   -0.000084631
      8        1           0.000861536    0.000199062    0.000655589
      9        1           0.001017418    0.000113982    0.000316056
     10        6          -0.000873894   -0.001227127    0.001930618
     11        1           0.000207034    0.000016496   -0.000794159
     12        1           0.000666819    0.000274609   -0.000444952
 -------------------------------------------------------------------
 Cartesian Forces:  Max     0.007175387 RMS     0.002473508

 GradGradGradGradGradGradGradGradGradGradGradGradGradGradGradGradGradGrad
 Berny optimization.
 Using GEDIIS/GDIIS optimizer.
 FormGI is forming the generalized inverse of G from B-inverse, IUseBI=4.
 Internal  Forces:  Max     0.010261315 RMS     0.001632439
 Search for a local minimum.
 Step number   3 out of a maximum of   67
 All quantities printed in internal units (Hartrees-Bohrs-Radians)
 Mixed Optimization -- RFO/linear search
 Update second derivatives using D2CorX and points    1    2    3
 DE= -3.86D-03 DEPred=-4.18D-03 R= 9.24D-01
 TightC=F SS=  1.41D+00  RLast= 2.54D-01 DXNew= 8.4853D-01 7.6098D-01
 Trust test= 9.24D-01 RLast= 2.54D-01 DXMaxT set to 7.61D-01
 ITU=  1  1  0
 Use linear search instead of GDIIS.
     Eigenvalues ---    0.00807   0.02857   0.03681   0.04827   0.04899
     Eigenvalues ---    0.05852   0.06142   0.10226   0.10484   0.11111
     Eigenvalues ---    0.11238   0.12398   0.13735   0.14889   0.15993
     Eigenvalues ---    0.16407   0.21884   0.22440   0.27861   0.34034
     Eigenvalues ---    0.34425   0.34727   0.34846   0.35721   0.39485
     Eigenvalues ---    0.42570   0.43816   0.45030   0.51272   0.57293
 RFO step:  Lambda=-7.02489093D-04 EMin= 8.06657151D-03
 Quartic linear search produced a step of  0.03170.
 Iteration  1 RMS(Cart)=  0.01449892 RMS(Int)=  0.00032079
 Iteration  2 RMS(Cart)=  0.00028445 RMS(Int)=  0.00003506
 Iteration  3 RMS(Cart)=  0.00000027 RMS(Int)=  0.00003506
 Variable       Old X    -DE/DX   Delta X   Delta X   Delta X     New X
                                 (Linear)    (Quad)   (Total)
    R1        2.89156   0.01026  -0.00237   0.01777   0.01540   2.90696
    R2        3.20355   0.00146   0.00146   0.00677   0.00826   3.21181
    R3        3.21888   0.00207   0.00147   0.00843   0.00990   3.22879
    R4        3.16290   0.00385   0.00134   0.01067   0.01202   3.17491
    R5        2.63722   0.00031  -0.00083  -0.00062  -0.00145   2.63577
    R6        2.63407   0.00087  -0.00098   0.00036  -0.00064   2.63343
    R7        1.80139   0.00050   0.00025   0.00084   0.00108   1.80247
    R8        2.08023   0.00050   0.00013   0.00183   0.00197   2.08219
    R9        2.07231   0.00047   0.00016   0.00172   0.00188   2.07419
   R10        2.90504   0.00032   0.00020  -0.00030  -0.00013   2.90490
   R11        2.07758   0.00062   0.00020   0.00211   0.00232   2.07990
   R12        2.07252   0.00013   0.00013   0.00074   0.00087   2.07339
    A1        2.12142  -0.00015   0.00112   0.00029   0.00141   2.12283
    A2        2.01853   0.00098   0.00156   0.01013   0.01169   2.03022
    A3        2.01499  -0.00046   0.00116  -0.00052   0.00067   2.01565
    A4        1.63348  -0.00045  -0.00083  -0.00302  -0.00393   1.62955
    A5        1.75726   0.00042  -0.00132  -0.00111  -0.00251   1.75475
    A6        1.86359  -0.00042  -0.00252  -0.00807  -0.01063   1.85296
    A7        1.93389  -0.00013   0.00019  -0.00142  -0.00123   1.93267
    A8        1.94262   0.00022   0.00013  -0.00083  -0.00077   1.94184
    A9        1.93158  -0.00185  -0.00188  -0.01507  -0.01694   1.91464
   A10        1.92398   0.00099  -0.00011   0.01087   0.01077   1.93475
   A11        1.92138   0.00054   0.00028   0.00730   0.00759   1.92897
   A12        1.87231  -0.00054   0.00025  -0.00527  -0.00511   1.86720
   A13        1.88423  -0.00010  -0.00023  -0.00338  -0.00369   1.88054
   A14        1.91612  -0.00036  -0.00008  -0.00365  -0.00371   1.91241
   A15        1.94620  -0.00051  -0.00010  -0.00556  -0.00565   1.94055
   A16        1.86322   0.00082  -0.00012   0.00187   0.00169   1.86491
   A17        1.93219   0.00005   0.00059   0.00010   0.00070   1.93289
   A18        1.91877   0.00000   0.00018   0.00752   0.00770   1.92647
   A19        1.92553  -0.00074  -0.00031  -0.00789  -0.00820   1.91733
   A20        1.93982  -0.00016   0.00007   0.00150   0.00157   1.94139
   A21        1.88486   0.00003  -0.00039  -0.00297  -0.00338   1.88148
    D1       -1.89517  -0.00135  -0.00123  -0.02001  -0.02125  -1.91643
    D2        0.25505  -0.00053   0.00060  -0.00939  -0.00881   0.24625
    D3        2.13698  -0.00101  -0.00243  -0.01846  -0.02085   2.11613
    D4        2.34464   0.00056   0.00131   0.02231   0.02365   2.36829
    D5        0.11562   0.00059  -0.00017   0.01938   0.01924   0.13486
    D6       -1.66975   0.00035   0.00197   0.02256   0.02445  -1.64529
    D7        0.68065  -0.00140  -0.00186  -0.04113  -0.04300   0.63766
    D8        2.99846  -0.00157  -0.00067  -0.04202  -0.04276   2.95571
    D9       -1.59016  -0.00201  -0.00275  -0.04745  -0.05013  -1.64030
   D10       -0.51246   0.00001  -0.00071  -0.00333  -0.00401  -0.51647
   D11        1.58376  -0.00035  -0.00082  -0.01168  -0.01250   1.57126
   D12       -2.61835  -0.00029  -0.00082  -0.01051  -0.01133  -2.62968
   D13        1.67336  -0.00062  -0.00021  -0.02380  -0.02406   1.64930
   D14       -2.53301   0.00022  -0.00039  -0.01665  -0.01699  -2.55000
   D15       -0.41236  -0.00042  -0.00019  -0.02239  -0.02258  -0.43494
   D16        0.58827   0.00030   0.00067   0.01687   0.01754   0.60580
   D17       -1.51223   0.00016   0.00021   0.02008   0.02030  -1.49194
   D18        2.68064   0.00071   0.00086   0.02802   0.02886   2.70950
   D19       -1.50248  -0.00037   0.00071   0.00898   0.00970  -1.49278
   D20        2.68021  -0.00051   0.00024   0.01219   0.01246   2.69267
   D21        0.58989   0.00005   0.00089   0.02012   0.02103   0.61092
   D22        2.69326   0.00032   0.00112   0.01915   0.02025   2.71351
   D23        0.59276   0.00018   0.00065   0.02236   0.02301   0.61577
   D24       -1.49755   0.00073   0.00130   0.03029   0.03158  -1.46598
         Item               Value     Threshold  Converged?
 Maximum Force            0.010261     0.000450     NO 
 RMS     Force            0.001632     0.000300     NO 
 Maximum Displacement     0.047410     0.001800     NO 
 RMS     Displacement     0.014500     0.001200     NO 
 Predicted change in Energy=-3.647268D-04
 GradGradGradGradGradGradGradGradGradGradGradGradGradGradGradGradGradGrad

                          Input orientation:                          
 ---------------------------------------------------------------------
 Center     Atomic      Atomic             Coordinates (Angstroms)
 Number     Number       Type             X           Y           Z
 ---------------------------------------------------------------------
      1         14           0       -0.687927    0.092187   -0.106652
      2          8           0       -1.667089    0.804646   -1.055336
      3          8           0        0.472767    0.953556    0.787514
      4          8           0        0.479371   -0.916772   -0.840636
      5          8           0       -1.397393   -0.822340    1.111134
      6          1           0       -2.187225   -1.241863    0.779541
      7          6           0        1.740416   -0.720691   -0.280899
      8          1           0        1.931439   -1.451514    0.521273
      9          1           0        2.522428   -0.845994   -1.040841
     10          6           0        1.756212    0.701097    0.303294
     11          1           0        2.026316    1.424511   -0.480996
     12          1           0        2.493686    0.790777    1.110706
 ---------------------------------------------------------------------
                    Distance matrix (angstroms):
                    1          2          3          4          5
     1  Si   0.000000
     2  O    1.538297   0.000000
     3  O    1.699618   2.827941   0.000000
     4  O    1.708600   2.759831   2.479726   0.000000
     5  O    1.680090   2.722758   2.599237   2.709348   0.000000
     6  H    2.193838   2.797413   3.448983   3.137099   0.953828
     7  C    2.566707   3.812807   2.356171   1.393553   3.434229
     8  H    3.104574   4.530492   2.825415   2.061370   3.438737
     9  H    3.472647   4.502985   3.283652   2.054063   4.471750
    10  C    2.551989   3.684507   1.394789   2.357202   3.594258
    11  H    3.046693   3.788844   2.060201   2.829132   4.393746
    12  H    3.477449   4.690840   2.053062   3.283432   4.212201
                    6          7          8          9         10
     6  H    0.000000
     7  C    4.101526   0.000000
     8  H    4.132075   1.101849   0.000000
     9  H    5.064715   1.097614   1.776548   0.000000
    10  C    4.421833   1.537209   2.170703   2.187984   0.000000
    11  H    5.143193   2.173401   3.047140   2.390554   1.100634
    12  H    5.113924   2.188268   2.385670   2.703517   1.097189
                   11         12
    11  H    0.000000
    12  H    1.775829   0.000000
 Stoichiometry    C2H5O4Si(1-)
 Framework group  C1[X(C2H5O4Si)]
 Deg. of freedom    30
 Full point group                 C1      NOp   1
 Largest Abelian subgroup         C1      NOp   1
 Largest concise Abelian subgroup C1      NOp   1
                         Standard orientation:                         
 ---------------------------------------------------------------------
 Center     Atomic      Atomic             Coordinates (Angstroms)
 Number     Number       Type             X           Y           Z
 ---------------------------------------------------------------------
      1         14           0       -0.708809   -0.098918    0.082739
      2          8           0       -1.700971   -0.868728    0.971199
      3          8           0        0.467508   -0.903117   -0.843675
      4          8           0        0.444737    0.865263    0.894530
      5          8           0       -1.401345    0.886723   -1.088419
      6          1           0       -2.197148    1.284403   -0.744421
      7          6           0        1.714735    0.705022    0.343699
      8          1           0        1.916544    1.483292   -0.409720
      9          1           0        2.484598    0.785104    1.121936
     10          6           0        1.742734   -0.678786   -0.325108
     11          1           0        2.002255   -1.447991    0.418106
     12          1           0        2.492826   -0.718502   -1.124862
 ---------------------------------------------------------------------
 Rotational constants (GHZ):           3.7992533           1.9483344           1.9179162
 Standard basis: def2TZVPP (5D, 7F)
 There are   339 symmetry adapted cartesian basis functions of A   symmetry.
 There are   298 symmetry adapted basis functions of A   symmetry.
   298 basis functions,   460 primitive gaussians,   339 cartesian basis functions
    32 alpha electrons       32 beta electrons
       nuclear repulsion energy       415.9311302953 Hartrees.
 NAtoms=   12 NActive=   12 NUniq=   12 SFac= 1.00D+00 NAtFMM=   60 NAOKFM=F Big=F
 Integral buffers will be    131072 words long.
 Raffenetti 2 integral format.
 Two-electron integral symmetry is turned on.
 Nuclear repulsion after empirical dispersion term =      415.9266152469 Hartrees.
 One-electron integrals computed using PRISM.
   1 Symmetry operations used in ECPInt.
 ECPInt:  NShTT=    6105 NPrTT=   17760 LenC2=    5984 LenP2D=   14084.
 LDataN:  DoStor=T MaxTD1= 6 Len=  172
 NBasis=   298 RedAO= T EigKep=  3.51D-04  NBF=   298
 NBsUse=   298 1.00D-06 EigRej= -1.00D+00 NBFU=   298
 Initial guess from the checkpoint file:  "QbiL_deprotonated_Opt.chk"
 B after Tr=     0.000000   -0.000000   -0.000000
         Rot=    0.999541   -0.029993    0.002949    0.002932 Ang=  -3.47 deg.
 ExpMin= 7.01D-02 ExpMax= 4.48D+04 ExpMxC= 1.53D+03 IAcc=3 IRadAn=         5 AccDes= 0.00D+00
 Harris functional with IExCor= 4639 and IRadAn=       5 diagonalized for initial guess.
 HarFok:  IExCor= 4639 AccDes= 0.00D+00 IRadAn=         5 IDoV= 1 UseB2=F ITyADJ=14
 ICtDFT=  3500011 ScaDFX=  1.000000  1.000000  1.000000  1.000000
 FoFCou: FMM=F IPFlag=           0 FMFlag=      100000 FMFlg1=           0
         NFxFlg=           0 DoJE=T BraDBF=F KetDBF=T FulRan=T
         wScrn=  0.000000 ICntrl=       500 IOpCl=  0 I1Cent=   200000004 NGrid=           0
         NMat0=    1 NMatS0=      1 NMatT0=    0 NMatD0=    1 NMtDS0=    0 NMtDT0=    0
 Petite list used in FoFCou.
 Requested convergence on RMS density matrix=1.00D-08 within 128 cycles.
 Requested convergence on MAX density matrix=1.00D-06.
 Requested convergence on             energy=1.00D-06.
 No special actions if energy rises.
 Integral accuracy reduced to 1.0D-05 until final iterations.
 Initial convergence to 1.0D-05 achieved.  Increase integral accuracy.
 SCF Done:  E(RwB97XD) =  -669.876664592     A.U. after   12 cycles
            NFock= 12  Conv=0.32D-08     -V/T= 2.0032
   1 Symmetry operations used in ECPInt.
 ECPInt:  NShTT=    6105 NPrTT=   17760 LenC2=    5984 LenP2D=   14084.
 LDataN:  DoStor=T MaxTD1= 7 Len=  274
 Calling FoFJK, ICntrl=      2127 FMM=F ISym2X=0 I1Cent= 0 IOpClX= 0 NMat=1 NMatS=1 NMatT=0.
 ***** Axes restored to original set *****
 -------------------------------------------------------------------
 Center     Atomic                   Forces (Hartrees/Bohr)
 Number     Number              X              Y              Z
 -------------------------------------------------------------------
      1       14           0.002839571   -0.000887616    0.001519940
      2        8          -0.001200151   -0.000314841   -0.000567538
      3        8          -0.000952907    0.001808089   -0.000672882
      4        8          -0.000009003    0.001171137   -0.001377521
      5        8           0.001314728   -0.002975740   -0.000060364
      6        1          -0.001824325    0.002185908    0.000241237
      7        6           0.000059177   -0.000093956    0.000832387
      8        1          -0.000380134    0.000002919   -0.000028601
      9        1          -0.000072307   -0.000162996    0.000077684
     10        6           0.000436215   -0.000907620    0.000277654
     11        1          -0.000045496    0.000022879   -0.000185560
     12        1          -0.000165368    0.000151837   -0.000056436
 -------------------------------------------------------------------
 Cartesian Forces:  Max     0.002975740 RMS     0.001076825

 GradGradGradGradGradGradGradGradGradGradGradGradGradGradGradGradGradGrad
 Berny optimization.
 Using GEDIIS/GDIIS optimizer.
 FormGI is forming the generalized inverse of G from B-inverse, IUseBI=4.
 Internal  Forces:  Max     0.002011566 RMS     0.000555186
 Search for a local minimum.
 Step number   4 out of a maximum of   67
 All quantities printed in internal units (Hartrees-Bohrs-Radians)
 Mixed Optimization -- En-DIIS/RFO-DIIS
 Update second derivatives using D2CorX and points    2    3    4
 DE= -5.11D-04 DEPred=-3.65D-04 R= 1.40D+00
 TightC=F SS=  1.41D+00  RLast= 1.27D-01 DXNew= 1.2798D+00 3.8032D-01
 Trust test= 1.40D+00 RLast= 1.27D-01 DXMaxT set to 7.61D-01
 ITU=  1  1  1  0
 Use linear search instead of GDIIS.
     Eigenvalues ---    0.00680   0.01597   0.03172   0.04859   0.04964
     Eigenvalues ---    0.05905   0.06446   0.10350   0.10836   0.11083
     Eigenvalues ---    0.11378   0.12411   0.14290   0.15359   0.15944
     Eigenvalues ---    0.17051   0.21815   0.22552   0.27850   0.34254
     Eigenvalues ---    0.34435   0.34810   0.34846   0.36027   0.39505
     Eigenvalues ---    0.42723   0.43823   0.45001   0.57172   0.57854
 RFO step:  Lambda=-5.57801783D-04 EMin= 6.80420327D-03
 Quartic linear search produced a step of  0.84292.
 Iteration  1 RMS(Cart)=  0.02879435 RMS(Int)=  0.00153534
 Iteration  2 RMS(Cart)=  0.00146735 RMS(Int)=  0.00014721
 Iteration  3 RMS(Cart)=  0.00000598 RMS(Int)=  0.00014712
 Iteration  4 RMS(Cart)=  0.00000000 RMS(Int)=  0.00014712
 Variable       Old X    -DE/DX   Delta X   Delta X   Delta X     New X
                                 (Linear)    (Quad)   (Total)
    R1        2.90696   0.00097   0.01298  -0.00673   0.00626   2.91322
    R2        3.21181  -0.00035   0.00696   0.00318   0.01020   3.22201
    R3        3.22879  -0.00042   0.00835   0.00224   0.01050   3.23929
    R4        3.17491   0.00078   0.01013   0.00570   0.01583   3.19074
    R5        2.63577   0.00013  -0.00122  -0.00106  -0.00217   2.63360
    R6        2.63343   0.00011  -0.00054  -0.00294  -0.00355   2.62988
    R7        1.80247   0.00047   0.00091   0.00151   0.00242   1.80490
    R8        2.08219  -0.00009   0.00166  -0.00010   0.00156   2.08375
    R9        2.07419  -0.00009   0.00158  -0.00008   0.00150   2.07569
   R10        2.90490  -0.00008  -0.00011  -0.00068  -0.00079   2.90412
   R11        2.07990   0.00014   0.00195   0.00099   0.00294   2.08284
   R12        2.07339  -0.00014   0.00073  -0.00025   0.00049   2.07388
    A1        2.12283  -0.00027   0.00119  -0.00047   0.00080   2.12363
    A2        2.03022  -0.00020   0.00985   0.00235   0.01227   2.04249
    A3        2.01565  -0.00101   0.00056  -0.00703  -0.00646   2.00919
    A4        1.62955   0.00054  -0.00331   0.00226  -0.00138   1.62816
    A5        1.75475   0.00085  -0.00212   0.00625   0.00415   1.75890
    A6        1.85296   0.00053  -0.00896  -0.00150  -0.01040   1.84256
    A7        1.93267  -0.00030  -0.00103  -0.00234  -0.00358   1.92908
    A8        1.94184  -0.00047  -0.00065  -0.00801  -0.00935   1.93250
    A9        1.91464  -0.00077  -0.01428  -0.01309  -0.02738   1.88726
   A10        1.93475  -0.00015   0.00908  -0.00504   0.00420   1.93895
   A11        1.92897  -0.00013   0.00640   0.00000   0.00650   1.93546
   A12        1.86720   0.00009  -0.00431  -0.00124  -0.00601   1.86119
   A13        1.88054   0.00002  -0.00311   0.00147  -0.00176   1.87879
   A14        1.91241   0.00031  -0.00313   0.00290  -0.00017   1.91225
   A15        1.94055  -0.00014  -0.00476   0.00188  -0.00271   1.93784
   A16        1.86491   0.00010   0.00143  -0.00111   0.00004   1.86495
   A17        1.93289   0.00013   0.00059   0.00071   0.00139   1.93428
   A18        1.92647  -0.00029   0.00649  -0.00164   0.00487   1.93134
   A19        1.91733  -0.00034  -0.00691  -0.00220  -0.00913   1.90820
   A20        1.94139   0.00038   0.00132   0.00390   0.00532   1.94671
   A21        1.88148   0.00002  -0.00285   0.00035  -0.00252   1.87896
    D1       -1.91643  -0.00080  -0.01792  -0.02610  -0.04397  -1.96040
    D2        0.24625  -0.00076  -0.00742  -0.02158  -0.02905   0.21720
    D3        2.11613   0.00000  -0.01758  -0.02189  -0.03951   2.07662
    D4        2.36829   0.00072   0.01993   0.03555   0.05545   2.42374
    D5        0.13486   0.00077   0.01622   0.03351   0.04969   0.18454
    D6       -1.64529  -0.00036   0.02061   0.02644   0.04701  -1.59829
    D7        0.63766  -0.00166  -0.03624  -0.07183  -0.10805   0.52961
    D8        2.95571  -0.00201  -0.03604  -0.07220  -0.10809   2.84762
    D9       -1.64030  -0.00105  -0.04226  -0.06817  -0.11060  -1.75089
   D10       -0.51647   0.00050  -0.00338   0.00517   0.00197  -0.51451
   D11        1.57126   0.00022  -0.01054   0.00224  -0.00825   1.56300
   D12       -2.62968   0.00014  -0.00955   0.00207  -0.00737  -2.63705
   D13        1.64930  -0.00029  -0.02028  -0.03531  -0.05564   1.59366
   D14       -2.55000  -0.00044  -0.01432  -0.03673  -0.05085  -2.60085
   D15       -0.43494  -0.00063  -0.01904  -0.03521  -0.05413  -0.48907
   D16        0.60580   0.00023   0.01478   0.02136   0.03615   0.64196
   D17       -1.49194   0.00020   0.01711   0.02240   0.03954  -1.45239
   D18        2.70950   0.00016   0.02433   0.02092   0.04525   2.75475
   D19       -1.49278   0.00018   0.00817   0.02651   0.03475  -1.45803
   D20        2.69267   0.00015   0.01050   0.02755   0.03814   2.73081
   D21        0.61092   0.00011   0.01772   0.02608   0.04385   0.65477
   D22        2.71351   0.00004   0.01707   0.02167   0.03871   2.75222
   D23        0.61577   0.00002   0.01940   0.02271   0.04210   0.65787
   D24       -1.46598  -0.00003   0.02662   0.02123   0.04781  -1.41817
         Item               Value     Threshold  Converged?
 Maximum Force            0.002012     0.000450     NO 
 RMS     Force            0.000555     0.000300     NO 
 Maximum Displacement     0.093225     0.001800     NO 
 RMS     Displacement     0.028864     0.001200     NO 
 Predicted change in Energy=-3.800244D-04
 GradGradGradGradGradGradGradGradGradGradGradGradGradGradGradGradGradGrad

                          Input orientation:                          
 ---------------------------------------------------------------------
 Center     Atomic      Atomic             Coordinates (Angstroms)
 Number     Number       Type             X           Y           Z
 ---------------------------------------------------------------------
      1         14           0       -0.686014    0.091010   -0.111870
      2          8           0       -1.702644    0.803510   -1.025850
      3          8           0        0.475724    0.960227    0.783619
      4          8           0        0.493208   -0.891197   -0.875440
      5          8           0       -1.362561   -0.871672    1.099101
      6          1           0       -2.196021   -1.210517    0.778532
      7          6           0        1.738135   -0.721155   -0.277109
      8          1           0        1.891418   -1.451601    0.534581
      9          1           0        2.546294   -0.860838   -1.007772
     10          6           0        1.757590    0.702502    0.301295
     11          1           0        2.027709    1.415894   -0.494272
[...]
 RMS     Displacement     0.000292     0.001200     YES
 Predicted change in Energy=-4.648325D-08
 Optimization completed.
    -- Stationary point found.
                           ----------------------------
                           !   Optimized Parameters   !
                           ! (Angstroms and Degrees)  !
 --------------------------                            --------------------------
 ! Name  Definition              Value          Derivative Info.                !
 --------------------------------------------------------------------------------
 ! R1    R(1,2)                  1.5403         -DE/DX =    0.0                 !
 ! R2    R(1,3)                  1.7021         -DE/DX =    0.0                 !
 ! R3    R(1,4)                  1.7024         -DE/DX =    0.0                 !
 ! R4    R(1,5)                  1.6829         -DE/DX =   -0.0001              !
 ! R5    R(3,10)                 1.3951         -DE/DX =    0.0                 !
 ! R6    R(4,7)                  1.3953         -DE/DX =    0.0                 !
 ! R7    R(5,6)                  0.955          -DE/DX =    0.0                 !
 ! R8    R(7,8)                  1.1014         -DE/DX =    0.0                 !
 ! R9    R(7,9)                  1.0968         -DE/DX =    0.0                 !
 ! R10   R(7,10)                 1.5355         -DE/DX =    0.0                 !
 ! R11   R(10,11)                1.101          -DE/DX =    0.0                 !
 ! R12   R(10,12)                1.0973         -DE/DX =    0.0                 !
 ! A1    A(2,1,3)              120.5984         -DE/DX =    0.0                 !
 ! A2    A(2,1,4)              118.1174         -DE/DX =    0.0                 !
 ! A3    A(2,1,5)              113.4594         -DE/DX =    0.0                 !
 ! A4    A(3,1,4)               93.3392         -DE/DX =    0.0                 !
 ! A5    A(3,1,5)              103.0024         -DE/DX =    0.0                 !
 ! A6    A(4,1,5)              105.4157         -DE/DX =    0.0                 !
 ! A7    A(1,3,10)             111.4146         -DE/DX =    0.0                 !
 ! A8    A(1,4,7)              110.4374         -DE/DX =    0.0                 !
 ! A9    A(1,5,6)              106.8948         -DE/DX =    0.0                 !
 ! A10   A(4,7,8)              110.7386         -DE/DX =    0.0                 !
 ! A11   A(4,7,9)              110.4082         -DE/DX =    0.0                 !
 ! A12   A(4,7,10)             106.6372         -DE/DX =    0.0                 !
 ! A13   A(8,7,9)              107.8971         -DE/DX =    0.0                 !
 ! A14   A(8,7,10)             109.7042         -DE/DX =    0.0                 !
 ! A15   A(9,7,10)             111.4779         -DE/DX =    0.0                 !
 ! A16   A(3,10,7)             106.8966         -DE/DX =    0.0                 !
 ! A17   A(3,10,11)            110.5753         -DE/DX =    0.0                 !
 ! A18   A(3,10,12)            110.5086         -DE/DX =    0.0                 !
 ! A19   A(7,10,11)            109.725          -DE/DX =    0.0                 !
 ! A20   A(7,10,12)            111.3511         -DE/DX =    0.0                 !
 ! A21   A(11,10,12)           107.8048         -DE/DX =    0.0                 !
 ! D1    D(2,1,3,10)          -118.7679         -DE/DX =    0.0                 !
 ! D2    D(4,1,3,10)             6.8906         -DE/DX =    0.0                 !
 ! D3    D(5,1,3,10)           113.5542         -DE/DX =    0.0                 !
 ! D4    D(2,1,4,7)            142.8276         -DE/DX =    0.0                 !
 ! D5    D(3,1,4,7)             15.2897         -DE/DX =    0.0                 !
 ! D6    D(5,1,4,7)            -89.1804         -DE/DX =    0.0                 !
 ! D7    D(2,1,5,6)              4.3601         -DE/DX =    0.0                 !
 ! D8    D(3,1,5,6)            136.4035         -DE/DX =    0.0                 !
 ! D9    D(4,1,5,6)           -126.3763         -DE/DX =    0.0                 !
 ! D10   D(1,3,10,7)           -24.675          -DE/DX =    0.0                 !
 ! D11   D(1,3,10,11)           94.7177         -DE/DX =    0.0                 !
 ! D12   D(1,3,10,12)         -145.9992         -DE/DX =    0.0                 !
 ! D13   D(1,4,7,8)             88.5502         -DE/DX =    0.0                 !
 ! D14   D(1,4,7,9)           -152.0117         -DE/DX =    0.0                 !
 ! D15   D(1,4,7,10)           -30.7524         -DE/DX =    0.0                 !
 ! D16   D(4,7,10,3)            35.2699         -DE/DX =    0.0                 !
 ! D17   D(4,7,10,11)          -84.6706         -DE/DX =    0.0                 !
 ! D18   D(4,7,10,12)          156.059          -DE/DX =    0.0                 !
 ! D19   D(8,7,10,3)           -84.7024         -DE/DX =    0.0                 !
 ! D20   D(8,7,10,11)          155.3571         -DE/DX =    0.0                 !
 ! D21   D(8,7,10,12)           36.0867         -DE/DX =    0.0                 !
 ! D22   D(9,7,10,3)           155.8455         -DE/DX =    0.0                 !
 ! D23   D(9,7,10,11)           35.9051         -DE/DX =    0.0                 !
 ! D24   D(9,7,10,12)          -83.3654         -DE/DX =    0.0                 !
 --------------------------------------------------------------------------------
 GradGradGradGradGradGradGradGradGradGradGradGradGradGradGradGradGradGrad


 ----------------------------------------------------------------------

 Electric dipole moment (input orientation):
 (Debye = 10**-18 statcoulomb cm , SI units = C m)
                  (au)            (Debye)         (10**-30 SI)
   Tot        0.210286D+01      0.534492D+01      0.178288D+02
   x          0.184659D+01      0.469358D+01      0.156561D+02
   y         -0.639034D+00     -0.162426D+01     -0.541795D+01
   z          0.776997D+00      0.197493D+01      0.658766D+01

 Dipole polarizability, Alpha (input orientation).
 (esu units = cm**3 , SI units = C**2 m**2 J**-1)
 Alpha(0;0):
               (au)            (10**-24 esu)      (10**-40 SI)
   iso        0.605284D+02      0.896938D+01      0.997979D+01
   aniso      0.158440D+02      0.234785D+01      0.261233D+01
   xx         0.707593D+02      0.104855D+02      0.116666D+02
   yx         0.400660D-01      0.593717D-02      0.660599D-02
   yy         0.559564D+02      0.829188D+01      0.922596D+01
   zx         0.108351D+01      0.160559D+00      0.178646D+00
   zy        -0.192436D+01     -0.285160D+00     -0.317284D+00
   zz         0.548695D+02      0.813082D+01      0.904676D+01

 ----------------------------------------------------------------------

 Dipole orientation:
    14         -0.30960153         -0.26393802         -1.24537962
     8          0.48302769          0.04387248         -4.02912590
     8         -0.47298239          2.29046664          0.70247715
     8          1.66057784         -1.87472814          0.72281875
     8         -3.16200604         -1.62287644         -0.88405788
     1         -3.73471422         -2.08611417         -2.53150964
     6          1.67332901         -0.77171279          3.11772590
     1          0.16905424         -1.57828825          4.30861996
     1          3.48620193         -1.11506583          4.06194357
     6          1.19836457          2.06429393          2.72875946
     1          2.99439422          3.02554037          2.30593625
     1          0.39808857          2.93619516          4.43134600

 Electric dipole moment (dipole orientation):
 (Debye = 10**-18 statcoulomb cm , SI units = C m)
                  (au)            (Debye)         (10**-30 SI)
   Tot        0.210286D+01      0.534492D+01      0.178288D+02
   x          0.000000D+00      0.000000D+00      0.000000D+00
   y          0.000000D+00      0.000000D+00      0.000000D+00
   z          0.210286D+01      0.534492D+01      0.178288D+02

 Dipole polarizability, Alpha (dipole orientation).
 (esu units = cm**3 , SI units = C**2 m**2 J**-1)
 Alpha(0;0):
               (au)            (10**-24 esu)      (10**-40 SI)
   iso        0.605284D+02      0.896938D+01      0.997979D+01
   aniso      0.158440D+02      0.234785D+01      0.261233D+01
   xx         0.577782D+02      0.856184D+01      0.952633D+01
   yx         0.298861D+01      0.442866D+00      0.492755D+00
   yy         0.554702D+02      0.821984D+01      0.914581D+01
   zx         0.472117D+01      0.699605D+00      0.778415D+00
   zy         0.232311D+01      0.344249D+00      0.383028D+00
   zz         0.683368D+02      0.101265D+02      0.112672D+02

 ----------------------------------------------------------------------
 Unable to Open any file for archive entry.
 1\1\GINC-GRA1198\Freq\RwB97XD\def2TZVPP\C2H5O4Si1(1-)\ARHENDER\15-Mar-
 2024\0\\#N Geom=AllCheck Guess=TCheck SCRF=Check GenChk RwB97XD/def2TZ
 VPP Freq\\Opt of QbiL deprotonated\\-1,1\Si,-0.6775148802,0.0380947134
 ,-0.1420831879\O,-1.7560885376,0.7193849967,-1.0052138432\O,0.45325335
 74,0.9685935782,0.7254768407\O,0.5265228125,-0.870174927,-0.9317986217
 \O,-1.3092494996,-0.9847594573,1.0355174024\H,-2.2549874118,-1.0074902
 17,0.905030921\C,1.7560965539,-0.7096562986,-0.2920733121\H,1.87851673
 81,-1.4543163709,0.5100962939\H,2.5786196953,-0.8440070777,-1.00509021
 46\C,1.7579614366,0.7034694651,0.3086445087\H,2.0758622134,1.431028463
 7,-0.45404778\H,2.4540075221,0.7774331314,1.1536409926\\Version=ES64L-
 G16RevC.01\State=1-A\HF=-669.8784823\RMSD=1.909e-09\RMSF=1.820e-05\Zer
 oPoint=0.0841391\Thermal=0.0912388\ETot=-669.7872435\HTot=-669.7862993
 \GTot=-669.8258315\Dipole=1.8465947,-0.6390337,0.7769971\DipoleDeriv=2
 .6465735,0.0036331,0.056495,0.0642105,1.6380214,-0.221013,-0.0130357,-
 0.1670997,1.6147616,-1.2234585,0.1053922,-0.1503957,0.110926,-0.928735
 6,0.1356101,-0.1611066,0.1310599,-0.9743881,-1.498958,-0.1529222,-0.02
 53032,-0.082482,-0.7095964,-0.1591795,-0.0599062,-0.1812911,-0.6490997
 ,-1.4572891,0.1727583,-0.0620632,0.1682577,-0.7023645,-0.1568034,-0.09
 16724,-0.1234594,-0.6898998,-0.7919174,-0.1379433,0.1803988,-0.2533295
 ,-0.8826387,0.3110776,0.3213444,0.3103578,-0.9490524,0.152082,0.024176
 4,-0.0521743,0.0267489,0.3002983,-0.0245921,-0.0553416,-0.0290497,0.29
 67686,0.8197287,-0.0807782,0.0643893,0.0736432,0.2737926,-0.0482596,0.
 2384189,-0.0853857,0.4355753,-0.0453327,0.0203191,-0.0296972,0.0704286
 ,-0.1480618,0.1215889,-0.1183439,0.1613567,-0.1421864,-0.2290461,0.056
 1183,0.121824,0.025097,0.0131009,-0.0080627,0.1776552,-0.0540647,-0.08
 36751,0.8999141,0.0834385,-0.0217466,-0.0955819,0.2721863,-0.0587999,-
 0.1828803,-0.0673531,0.402475,-0.0850305,-0.0589857,0.0553185,-0.09897
 56,-0.1409732,0.1067767,0.1424335,0.1526019,-0.1207464,-0.1872658,-0.0
 352064,-0.1370455,-0.0089428,0.0149707,0.0016571,-0.1975653,-0.0476729
 ,-0.1405325\Polar=70.7593281,0.040066,55.9563939,1.0835066,-1.9243583,
 54.8694874\Quadrupole=0.8330558,0.3222476,-1.1553034,3.7312004,-4.0919
 757,0.9819006\PG=C01 [X(C2H5O4Si1)]\NImag=0\\0.63615170,-0.09870459,0.
 39409144,0.13533885,-0.12285387,0.45292935,-0.26405033,0.13410979,-0.1
 7145036,0.27452001,0.13275270,-0.13524051,0.11092644,-0.15109177,0.131
 80909,-0.17016985,0.11136981,-0.18883612,0.19150061,-0.12671140,0.1932
 1014,-0.09870109,-0.04200543,-0.04416818,-0.01129740,-0.00815987,-0.01
 560717,0.43688494,-0.03965911,-0.08110623,-0.03875391,0.00264072,0.008
 09073,0.00126522,0.01928317,0.16712550,-0.04035882,-0.03954957,-0.0758
 4722,-0.01108924,-0.00415550,0.00160506,-0.02476956,0.09234201,0.16118
 290,-0.10500654,0.04858574,0.03862913,-0.01374931,0.01568668,0.0049502
 6,0.01701559,0.01135987,0.01078282,0.41563593,0.04703942,-0.07890290,-
 0.03600058,0.01043233,0.00178689,-0.00222011,-0.01035989,-0.01324786,-
 0.02147020,-0.04111974,0.15591916,0.03486396,-0.03523989,-0.07176839,-
 0.00617785,0.00490453,0.00819894,-0.00806536,-0.01868674,-0.00748848,0
 .05857704,0.08381678,0.19753633,-0.07106557,-0.04336484,0.05045281,0.0
 1005005,0.00695287,-0.00842885,-0.01289365,-0.01566002,0.00573235,-0.0
 1210759,-0.00485438,0.01600841,0.62205490,-0.02237813,-0.10364387,0.07
 712922,-0.00143190,-0.00462954,0.02185588,-0.01633710,-0.00199655,0.00
 382667,0.00102023,0.00618306,-0.00108630,0.06492779,0.11826050,0.02429
 480,0.07451126,-0.12640769,0.00137200,0.02175899,-0.01200859,0.0002698
 0,-0.00111126,0.00565401,0.01599738,0.00281243,-0.00176489,0.01566613,
 -0.10771831,0.16091469,-0.01810604,-0.00133197,-0.00210719,0.00035156,
 0.00376826,-0.00375030,0.00085089,-0.00042794,0.00080430,0.00081424,-0
 .00062575,0.00081383,-0.54073318,-0.02683830,-0.05627756,0.55664353,-0
 .02094408,0.00035624,0.00148572,0.00325159,0.00043782,-0.00365333,-0.0
 0283382,-0.00321168,0.00147198,0.00121209,-0.00003404,-0.00030133,-0.0
 0592742,-0.01111235,0.01017719,0.02557026,0.01452927,0.02283681,0.0046
 1101,0.00153848,-0.00318469,-0.00362673,0.00050554,-0.00045194,0.00061
 902,-0.00007720,0.00208820,0.00114555,-0.00398069,-0.08131400,0.006670
 46,-0.02355522,0.06050417,-0.00926403,0.02581253,-0.04432636,0.0272036
 0,0.01498037,0.00420576,-0.00367927,-0.00107970,-0.03377200,0.02623381
 ,0.00792673,-0.21176256,-0.00604003,-0.06108187,0.00420508,-0.00036604
 ,-0.00397968,0.00010279,-0.00021338,-0.00064885,0.55600132,0.01146286,
 0.00333098,0.00436313,0.00215498,-0.00254526,-0.00136744,0.01239570,-0
 .01205873,-0.01483207,-0.02349412,-0.07239160,-0.01159488,-0.00005376,
 -0.00051767,0.00057766,0.00001915,-0.00022781,0.00001687,-0.04141263,0
 .48868568,-0.00270107,0.00853464,0.01324291,0.00253545,-0.00293080,-0.
 00027429,0.01095796,-0.02343557,-0.01307788,-0.07426778,-0.01005485,-0
 .10922461,0.00258800,0.00004314,-0.00546554,-0.00020556,-0.00023526,-0
 .00033583,-0.06187023,-0.04570258,0.53973486,0.00213765,-0.00092530,-0
 .00679144,-0.00144732,0.00066190,0.00097269,0.00162311,0.00001934,0.00
 058536,-0.02016084,0.02129639,-0.03140669,0.00033580,-0.00053768,0.000
 80189,0.00006324,-0.00006341,-0.00005294,-0.04938104,0.01018238,-0.001
 82397,0.06243922,-0.00139264,0.00018218,0.00178619,0.00047419,-0.00000
 628,-0.00014472,0.00091184,0.00239405,-0.00141356,0.00559397,0.0098362
 2,-0.00213282,0.00035681,0.00028719,-0.00080327,-0.00004300,-0.0000001
 9,-0.00004215,0.01068326,-0.16127530,0.11158217,-0.01336583,0.17260925
 ,0.00374151,-0.00258014,-0.00531007,-0.00127075,0.00071880,0.00055852,
 -0.00053112,0.00157719,0.00101498,-0.02185018,0.00828678,-0.01137174,-
 0.00071757,-0.00055313,0.00120153,0.00004708,0.00013261,0.00012024,-0.
 00351727,0.11478380,-0.17047594,0.02114721,-0.12647489,0.18920826,0.00
 154035,-0.00546686,-0.00370760,-0.00126259,0.00132945,-0.00012811,0.00
 191110,0.00035699,0.00028149,-0.04124400,0.00533984,0.00952292,-0.0012
 2036,-0.00010102,0.00158064,0.00004006,0.00005516,0.00011005,-0.166739
 56,0.02135521,0.11843689,0.00309373,-0.00031842,0.00141828,0.20221067,
 -0.00091968,-0.00274126,-0.00166301,0.00022683,0.00032788,0.00033553,0
 .00377224,-0.00546005,-0.00270247,-0.00596364,0.00380803,0.00156535,0.
 00018348,0.00046879,0.00002533,0.00003184,0.00002903,-0.00007123,0.020
 81804,-0.05574633,-0.01811787,-0.01527989,0.00343046,0.01644650,-0.024
 15887,0.05478927,-0.00261624,-0.00134284,-0.00181980,0.00014318,0.0003
 7986,0.00033542,0.00129179,-0.00311227,0.00047577,-0.01813831,0.002592
 69,0.01602641,0.00009960,0.00016531,0.00050918,0.00000048,-0.00001014,
 0.00007000,0.12383920,-0.02116232,-0.16843362,0.01640353,-0.00302448,-
 0.01573381,-0.12899438,0.02169306,0.17378457,-0.04195117,-0.02728513,-
 0.02086812,0.00476677,0.00218008,0.00442710,-0.22899020,0.01745441,0.0
 4082323,-0.03290397,-0.02043326,-0.01222950,0.00342950,0.00443329,0.00
 010624,0.00002979,0.00025280,0.00018124,-0.06072317,0.00695800,0.00809
 913,0.00010037,-0.00279289,0.00073262,0.00156942,0.02212429,0.00881831
 ,0.54049538,-0.00921074,0.00645944,0.00473095,-0.00029205,-0.00069323,
 -0.00054672,0.03612892,-0.07620836,-0.01197140,-0.00854386,-0.01017486
 ,-0.01641007,-0.00219867,-0.00352202,-0.00052074,-0.00015124,-0.000774
 16,-0.00008299,-0.01126172,-0.16650903,-0.02229346,-0.00114413,-0.0230
 6108,-0.01024883,-0.00023214,0.00077346,0.00459256,0.04618030,0.485010
 70,-0.00536179,0.00590955,0.00690116,-0.00276147,-0.00160318,-0.004441
 64,0.05386465,-0.01443869,-0.08737572,-0.01609408,-0.02730794,-0.01744
 063,-0.00058892,-0.00096992,0.00055369,0.00019820,0.00002899,-0.000103
 01,-0.00473562,-0.02046271,-0.08579594,0.00056544,0.02387062,0.0085868
 8,0.00165943,-0.01775122,-0.00641699,0.05434331,-0.04252305,0.55911541
 ,0.00235563,0.00260188,0.00725509,-0.00025064,0.00034146,-0.00113370,-
 0.03167949,-0.01907120,0.02767364,0.00153334,-0.00029327,-0.00057931,-
 0.00146764,-0.00134028,-0.00042177,-0.00012655,-0.00033552,0.00002225,
 0.00053369,0.00111061,-0.00013072,0.00075214,0.00048356,0.00034627,0.0
 0065656,0.00024360,-0.00036154,-0.05853039,-0.03844892,0.03078722,0.07
 960864,0.00106509,0.00021947,0.00090036,-0.00035212,0.00010108,-0.0004
 9557,-0.00183489,0.01190629,-0.00520227,-0.00057698,0.00249507,-0.0015
 5686,-0.00024239,0.00006817,0.00000013,0.00002753,0.00000946,-0.000004
 25,-0.00313042,-0.02300191,0.02387125,-0.00048094,-0.00547201,-0.00287
 454,0.00068618,0.00095891,-0.00033696,-0.03840570,-0.15797640,0.106561
 63,0.04273477,0.16840507,-0.00287591,-0.00290448,-0.00381962,0.0007895
 2,0.00007059,0.00084324,0.01912307,0.00279773,-0.00197136,0.00073587,0
 .00150542,0.00102464,0.00084710,0.00074879,0.00004812,-0.00004058,0.00
 013926,0.00001994,-0.00297995,-0.00984296,0.00819781,-0.00056581,-0.00
 274471,0.00064532,-0.00054586,0.00090355,0.00140508,0.03254312,0.10952
 334,-0.16458493,-0.05068611,-0.11916901,0.17652120,0.00102178,0.006583
 11,0.00243664,-0.00183657,-0.00074250,-0.00155299,-0.04095180,-0.00253
 004,-0.01839230,0.00193572,-0.00038166,-0.00024557,-0.00058735,-0.0010
 5086,0.00059013,0.00006966,-0.00002426,-0.00009029,0.00165605,-0.00067
 840,-0.00161810,0.00044394,-0.00059086,0.00045390,-0.00055539,-0.00107
 824,-0.00048561,-0.12729235,-0.01082577,-0.11187639,0.00661473,0.00050
 988,0.00365556,0.15948158,0.00088891,-0.00300499,-0.00205063,-0.000122
 59,0.00056134,0.00031285,0.00903914,0.00377290,0.00365637,-0.00376023,
 -0.00527716,-0.00327778,-0.00011948,0.00015429,0.00029059,0.00000117,-
 0.00000159,0.00002846,-0.01883524,0.00225699,-0.02126082,-0.00036284,0
 .00107550,0.00078584,0.00115449,-0.00063820,-0.00043448,-0.01066620,-0
 .05332447,-0.01131408,0.01197328,0.00228680,0.01897248,0.01080959,0.05
 213858,0.00300776,-0.00046548,-0.00080301,-0.00040640,0.00026839,0.000
 30378,0.00808605,0.00093726,0.01590515,-0.00141036,-0.00310596,0.00025
 310,-0.00034506,-0.00011183,0.00032072,0.00001313,0.00002834,-0.000014
 78,-0.00685312,0.00522351,-0.00809193,0.00016473,-0.00045839,0.0015558
 1,0.00036626,-0.00066353,-0.00020221,-0.11697668,-0.01424958,-0.208998
 28,-0.01277133,-0.00169392,-0.01832943,0.12712502,0.01429119,0.2181010
 7\\0.00004140,0.00002355,-0.00002312,-0.00001748,0.00003714,0.00000545
 ,-0.00002842,0.00001837,-0.00000466,-0.00001063,-0.00002159,0.00000090
 ,-0.00000420,-0.00005585,0.00003412,-0.00000740,0.00000422,-0.00000953
 ,0.00001415,0.00001677,0.00000456,-0.00000154,-0.00000175,-0.00000597,
 -0.00000034,0.00000399,-0.00000269,0.00001312,-0.00002051,-0.00000198,
 -0.00000036,0.00000048,0.00000327,0.00000169,-0.00000483,-0.00000035\\
 \@
 The archive entry for this job was punched.


 WHEN IT COMES TO CASH FLOW, IT SEEMS LIKE THE TIDE IS ALWAYS GOING OUT.
 Job cpu time:       0 days  1 hours  6 minutes 12.0 seconds.
 Elapsed time:       0 days  0 hours 16 minutes 35.9 seconds.
 File lengths (MBytes):  RWF=    111 Int=      0 D2E=      0 Chk=      8 Scr=      1
 Normal termination of Gaussian 16 at Fri Mar 15 02:12:50 2024.
