 Entering Gaussian System, Link 0=/opt/software/gaussian/g16.b01/g16
 Initial command:
 /opt/software/gaussian/g16.b01/l1.exe "/scratch/arhender/15472983/Gau-208582.inp" -scrdir="/scratch/arhender/15472983/"
 Entering Link 1 = /opt/software/gaussian/g16.b01/l1.exe PID=    208584.
  
 Copyright (c) 1988-2017, Gaussian, Inc.  All Rights Reserved.
  
 This is part of the Gaussian(R) 16 program.  It is based on
 the Gaussian(R) 09 system (copyright 2009, Gaussian, Inc.),
 the Gaussian(R) 03 system (copyright 2003, Gaussian, Inc.),
 the Gaussian(R) 98 system (copyright 1998, Gaussian, Inc.),
 the Gaussian(R) 94 system (copyright 1995, Gaussian, Inc.),
 the Gaussian 92(TM) system (copyright 1992, Gaussian, Inc.),
 the Gaussian 90(TM) system (copyright 1990, Gaussian, Inc.),
 the Gaussian 88(TM) system (copyright 1988, Gaussian, Inc.),
 the Gaussian 86(TM) system (copyright 1986, Carnegie Mellon
 University), and the Gaussian 82(TM) system (copyright 1983,
 Carnegie Mellon University). Gaussian is a federally registered
 trademark of Gaussian, Inc.
  
 This software contains proprietary and confidential information,
 including trade secrets, belonging to Gaussian, Inc.
  
 This software is provided under written license and may be
 used, copied, transmitted, or stored only in accord with that
 written license.
  
 The following legend is applicable only to US Government
 contracts under FAR:
  
                    RESTRICTED RIGHTS LEGEND
  
 Use, reproduction and disclosure by the US Government is
 subject to restrictions as set forth in subparagraphs (a)
 and (c) of the Commercial Computer Software - Restricted
 Rights clause in FAR 52.227-19.
  
 Gaussian, Inc.
 340 Quinnipiac St., Bldg. 40, Wallingford CT 06492
  
  
 ---------------------------------------------------------------
 Warning -- This program may not be used in any manner that
 competes with the business of Gaussian, Inc. or will provide
 assistance to any competitor of Gaussian, Inc.  The licensee
 of this program is prohibited from giving any competitor of
 Gaussian, Inc. access to this program.  By using this program,
 the user acknowledges that Gaussian, Inc. is engaged in the
 business of creating and licensing software in the field of
 computational chemistry and represents and warrants to the
 licensee that it is not a competitor of Gaussian, Inc. and that
 it will not use this program in any manner prohibited above.
 ---------------------------------------------------------------
  

 Cite this work as:
 Gaussian 16, Revision B.01,
 M. J. Frisch, G. W. Trucks, H. B. Schlegel, G. E. Scuseria, 
 M. A. Robb, J. R. Cheeseman, G. Scalmani, V. Barone, 
 G. A. Petersson, H. Nakatsuji, X. Li, M. Caricato, A. V. Marenich, 
 J. Bloino, B. G. Janesko, R. Gomperts, B. Mennucci, H. P. Hratchian, 
 J. V. Ortiz, A. F. Izmaylov, J. L. Sonnenberg, D. Williams-Young, 
 F. Ding, F. Lipparini, F. Egidi, J. Goings, B. Peng, A. Petrone, 
 T. Henderson, D. Ranasinghe, V. G. Zakrzewski, J. Gao, N. Rega, 
 G. Zheng, W. Liang, M. Hada, M. Ehara, K. Toyota, R. Fukuda, 
 J. Hasegawa, M. Ishida, T. Nakajima, Y. Honda, O. Kitao, H. Nakai, 
 T. Vreven, K. Throssell, J. A. Montgomery, Jr., J. E. Peralta, 
 F. Ogliaro, M. J. Bearpark, J. J. Heyd, E. N. Brothers, K. N. Kudin, 
 V. N. Staroverov, T. A. Keith, R. Kobayashi, J. Normand, 
 K. Raghavachari, A. P. Rendell, J. C. Burant, S. S. Iyengar, 
 J. Tomasi, M. Cossi, J. M. Millam, M. Klene, C. Adamo, R. Cammi, 
 J. W. Ochterski, R. L. Martin, K. Morokuma, O. Farkas, 
 J. B. Foresman, and D. J. Fox, Gaussian, Inc., Wallingford CT, 2016.
 
 ******************************************
 Gaussian 16:  ES64L-G16RevB.01 20-Dec-2017
                17-Jan-2024 
 ******************************************
 %chk=QmonoLBiL_EG_20kmmx_confOpt_3.chk
 %mem=1600MB
 %nprocs=16
 Will use up to   16 processors via shared memory.
 ---------------------------------------------
 # opt freq wb97xd/Def2TZVPP geom=connectivity
 ---------------------------------------------
 1/18=20,19=15,26=3,38=1,57=2/1,3;
 2/9=110,12=2,17=6,18=5,40=1/2;
 3/5=44,7=202,11=2,25=1,30=1,71=1,74=-58/1,2,3;
 4//1;
 5/5=2,38=5/2;
 6/7=2,8=2,9=2,10=2,28=1/1;
 7//1,2,3,16;
 1/18=20,19=15,26=3/3(2);
 2/9=110/2;
 99//99;
 2/9=110/2;
 3/5=44,7=202,11=2,25=1,30=1,71=1,74=-58/1,2,3;
 4/5=5,16=3,69=1/1;
 5/5=2,38=5/2;
 7//1,2,3,16;
 1/18=20,19=15,26=3/3(-5);
 2/9=110/2;
 6/7=2,8=2,9=2,10=2,19=2,28=1/1;
 99/9=1/99;
 -------------------
 Title Card Required
 -------------------
 Symbolic Z-matrix:
 Charge =  0 Multiplicity = 1
 Si                    0.        0.        0. 
 O                     1.6323    0.        0. 
 O                    -0.6221    0.7882    1.2799 
 H                    -1.3108    1.3445    0.9619 
 O                    -0.573     0.6448   -1.3905 
 C                    -0.9541   -0.4676   -2.1774 
 H                    -1.7361   -0.1291   -2.895 
 H                    -0.0633   -0.8121   -2.7559 
 C                    -1.464    -1.5262   -1.1964 
 H                    -1.4849   -2.5501   -1.6348 
 H                    -2.4804   -1.2846   -0.8024 
 C                     2.2728    1.2623    0. 
 H                     1.9359    1.86     -0.8802 
 H                     2.0275    1.7989    0.9474 
 C                     3.7791    1.002    -0.0849 
 H                     4.1412    0.3413    0.736 
 H                     4.3636    1.9505   -0.0791 
 O                    -0.5592   -1.5336   -0.1085 
 O                     4.0644    0.3572   -1.3064 
 H                     3.5584   -0.4407   -1.3256 
 

 GradGradGradGradGradGradGradGradGradGradGradGradGradGradGradGradGradGrad
 Berny optimization.
 Initialization pass.
                           ----------------------------
                           !    Initial Parameters    !
                           ! (Angstroms and Degrees)  !
 --------------------------                            --------------------------
 ! Name  Definition              Value          Derivative Info.                !
 --------------------------------------------------------------------------------
 ! R1    R(1,2)                  1.6323         estimate D2E/DX2                !
 ! R2    R(1,3)                  1.6268         estimate D2E/DX2                !
 ! R3    R(1,5)                  1.6363         estimate D2E/DX2                !
 ! R4    R(1,18)                 1.636          estimate D2E/DX2                !
 ! R5    R(2,12)                 1.4155         estimate D2E/DX2                !
 ! R6    R(3,4)                  0.9407         estimate D2E/DX2                !
 ! R7    R(5,6)                  1.4149         estimate D2E/DX2                !
 ! R8    R(6,7)                  1.114          estimate D2E/DX2                !
 ! R9    R(6,8)                  1.1166         estimate D2E/DX2                !
 ! R10   R(6,9)                  1.5307         estimate D2E/DX2                !
 ! R11   R(9,10)                 1.114          estimate D2E/DX2                !
 ! R12   R(9,11)                 1.1165         estimate D2E/DX2                !
 ! R13   R(9,18)                 1.415          estimate D2E/DX2                !
 ! R14   R(12,13)                1.116          estimate D2E/DX2                !
 ! R15   R(12,14)                1.1161         estimate D2E/DX2                !
 ! R16   R(12,15)                1.531          estimate D2E/DX2                !
 ! R17   R(15,16)                1.1142         estimate D2E/DX2                !
 ! R18   R(15,17)                1.1141         estimate D2E/DX2                !
 ! R19   R(15,19)                1.4104         estimate D2E/DX2                !
 ! R20   R(19,20)                0.945          estimate D2E/DX2                !
 ! A1    A(2,1,3)              112.4832         estimate D2E/DX2                !
 ! A2    A(2,1,5)              110.4979         estimate D2E/DX2                !
 ! A3    A(2,1,18)             109.9875         estimate D2E/DX2                !
 ! A4    A(3,1,5)              110.1046         estimate D2E/DX2                !
 ! A5    A(3,1,18)             112.0652         estimate D2E/DX2                !
 ! A6    A(5,1,18)             101.1479         estimate D2E/DX2                !
 ! A7    A(1,2,12)             116.9036         estimate D2E/DX2                !
 ! A8    A(1,3,4)              107.4897         estimate D2E/DX2                !
 ! A9    A(1,5,6)              104.899          estimate D2E/DX2                !
 ! A10   A(5,6,7)              107.9647         estimate D2E/DX2                !
 ! A11   A(5,6,8)              108.4102         estimate D2E/DX2                !
 ! A12   A(5,6,9)              106.0827         estimate D2E/DX2                !
 ! A13   A(7,6,8)              108.6639         estimate D2E/DX2                !
 ! A14   A(7,6,9)              112.9006         estimate D2E/DX2                !
 ! A15   A(8,6,9)              112.6072         estimate D2E/DX2                !
 ! A16   A(6,9,10)             112.935          estimate D2E/DX2                !
 ! A17   A(6,9,11)             112.318          estimate D2E/DX2                !
 ! A18   A(6,9,18)             106.46           estimate D2E/DX2                !
 ! A19   A(10,9,11)            108.7035         estimate D2E/DX2                !
 ! A20   A(10,9,18)            108.0443         estimate D2E/DX2                !
 ! A21   A(11,9,18)            108.1744         estimate D2E/DX2                !
 ! A22   A(2,12,13)            109.938          estimate D2E/DX2                !
 ! A23   A(2,12,14)            109.2261         estimate D2E/DX2                !
 ! A24   A(2,12,15)            107.0721         estimate D2E/DX2                !
 ! A25   A(13,12,14)           110.2213         estimate D2E/DX2                !
 ! A26   A(13,12,15)           110.1409         estimate D2E/DX2                !
 ! A27   A(14,12,15)           110.1852         estimate D2E/DX2                !
 ! A28   A(12,15,16)           112.315          estimate D2E/DX2                !
 ! A29   A(12,15,17)           111.7851         estimate D2E/DX2                !
 ! A30   A(12,15,19)           108.9522         estimate D2E/DX2                !
 ! A31   A(16,15,17)           109.2979         estimate D2E/DX2                !
 ! A32   A(16,15,19)           107.5321         estimate D2E/DX2                !
 ! A33   A(17,15,19)           106.7138         estimate D2E/DX2                !
 ! A34   A(1,18,9)             105.3464         estimate D2E/DX2                !
 ! A35   A(15,19,20)           107.175          estimate D2E/DX2                !
 ! D1    D(3,1,2,12)           -58.374          estimate D2E/DX2                !
 ! D2    D(5,1,2,12)            65.122          estimate D2E/DX2                !
 ! D3    D(18,1,2,12)          175.9531         estimate D2E/DX2                !
 ! D4    D(2,1,3,4)            134.4542         estimate D2E/DX2                !
 ! D5    D(5,1,3,4)             10.7393         estimate D2E/DX2                !
 ! D6    D(18,1,3,4)          -101.0092         estimate D2E/DX2                !
 ! D7    D(2,1,5,6)            101.4257         estimate D2E/DX2                !
 ! D8    D(3,1,5,6)           -133.7129         estimate D2E/DX2                !
 ! D9    D(18,1,5,6)           -15.0365         estimate D2E/DX2                !
 ! D10   D(2,1,18,9)          -127.283          estimate D2E/DX2                !
 ! D11   D(3,1,18,9)           106.8067         estimate D2E/DX2                !
 ! D12   D(5,1,18,9)           -10.4458         estimate D2E/DX2                !
 ! D13   D(1,2,12,13)          -57.0329         estimate D2E/DX2                !
 ! D14   D(1,2,12,14)           64.0254         estimate D2E/DX2                !
 ! D15   D(1,2,12,15)         -176.6744         estimate D2E/DX2                !
 ! D16   D(1,5,6,7)            155.0703         estimate D2E/DX2                !
 ! D17   D(1,5,6,8)            -87.3819         estimate D2E/DX2                !
 ! D18   D(1,5,6,9)             33.7903         estimate D2E/DX2                !
 ! D19   D(5,6,9,10)          -161.3818         estimate D2E/DX2                !
 ! D20   D(5,6,9,11)            75.2452         estimate D2E/DX2                !
 ! D21   D(5,6,9,18)           -42.9749         estimate D2E/DX2                !
 ! D22   D(7,6,9,10)            80.5678         estimate D2E/DX2                !
 ! D23   D(7,6,9,11)           -42.8052         estimate D2E/DX2                !
 ! D24   D(7,6,9,18)          -161.0252         estimate D2E/DX2                !
 ! D25   D(8,6,9,10)           -42.9513         estimate D2E/DX2                !
 ! D26   D(8,6,9,11)          -166.3243         estimate D2E/DX2                !
 ! D27   D(8,6,9,18)            75.4556         estimate D2E/DX2                !
 ! D28   D(6,9,18,1)            30.7669         estimate D2E/DX2                !
 ! D29   D(10,9,18,1)          152.3415         estimate D2E/DX2                !
 ! D30   D(11,9,18,1)          -90.1478         estimate D2E/DX2                !
 ! D31   D(2,12,15,16)         -56.1025         estimate D2E/DX2                !
 ! D32   D(2,12,15,17)        -179.3836         estimate D2E/DX2                !
 ! D33   D(2,12,15,19)          62.9252         estimate D2E/DX2                !
 ! D34   D(13,12,15,16)       -175.6135         estimate D2E/DX2                !
 ! D35   D(13,12,15,17)         61.1054         estimate D2E/DX2                !
 ! D36   D(13,12,15,19)        -56.5859         estimate D2E/DX2                !
 ! D37   D(14,12,15,16)         62.5777         estimate D2E/DX2                !
 ! D38   D(14,12,15,17)        -60.7034         estimate D2E/DX2                !
 ! D39   D(14,12,15,19)       -178.3946         estimate D2E/DX2                !
 ! D40   D(12,15,19,20)        -58.0604         estimate D2E/DX2                !
 ! D41   D(16,15,19,20)         63.9114         estimate D2E/DX2                !
 ! D42   D(17,15,19,20)       -178.9124         estimate D2E/DX2                !
 --------------------------------------------------------------------------------
 Trust Radius=3.00D-01 FncErr=1.00D-07 GrdErr=1.00D-06 EigMax=2.50D+02 EigMin=1.00D-04
 Number of steps in this run=    107 maximum allowed number of steps=    120.
 GradGradGradGradGradGradGradGradGradGradGradGradGradGradGradGradGradGrad

                          Input orientation:                          
 ---------------------------------------------------------------------
 Center     Atomic      Atomic             Coordinates (Angstroms)
 Number     Number       Type             X           Y           Z
 ---------------------------------------------------------------------
      1         14           0        0.000000    0.000000    0.000000
      2          8           0        1.632300    0.000000    0.000000
      3          8           0       -0.622100    0.788200    1.279900
      4          1           0       -1.310800    1.344500    0.961900
      5          8           0       -0.573000    0.644800   -1.390500
      6          6           0       -0.954100   -0.467600   -2.177400
      7          1           0       -1.736100   -0.129100   -2.895000
      8          1           0       -0.063300   -0.812100   -2.755900
      9          6           0       -1.464000   -1.526200   -1.196400
     10          1           0       -1.484900   -2.550100   -1.634800
     11          1           0       -2.480400   -1.284600   -0.802400
     12          6           0        2.272800    1.262300    0.000000
     13          1           0        1.935900    1.860000   -0.880200
     14          1           0        2.027500    1.798900    0.947400
     15          6           0        3.779100    1.002000   -0.084900
     16          1           0        4.141200    0.341300    0.736000
     17          1           0        4.363600    1.950500   -0.079100
     18          8           0       -0.559200   -1.533600   -0.108500
     19          8           0        4.064400    0.357200   -1.306400
     20          1           0        3.558400   -0.440700   -1.325600
 ---------------------------------------------------------------------
                    Distance matrix (angstroms):
                    1          2          3          4          5
     1  Si   0.000000
     2  O    1.632300   0.000000
     3  O    1.626780   2.709561   0.000000
     4  H    2.109770   3.375614   0.940692   0.000000
     5  O    1.636333   2.685629   2.674698   2.562755   0.000000
     6  C    2.422814   3.413090   3.693262   3.642272   1.414879
     7  H    3.378126   4.443401   4.417264   4.150669   2.053106
     8  H    2.873760   3.336098   4.377316   4.475401   2.060745
     9  C    2.429806   3.653455   3.492464   3.594808   2.354739
    10  H    3.373501   4.346552   4.514881   4.684130   3.331461
    11  H    2.906274   4.382733   3.476457   3.375335   2.776080
    12  C    2.599812   1.415500   3.200525   3.711361   3.226976
    13  H    2.825254   2.080030   3.515416   3.768306   2.834025
    14  H    2.871300   2.071181   2.855250   3.369115   3.682434
    15  C    3.910602   2.370646   4.612911   5.207704   4.557736
    16  H    4.219919   2.636809   4.815036   5.548130   5.180521
    17  H    4.780346   3.357187   5.296700   5.800839   5.272062
    18  O    1.635972   2.677008   2.705987   3.161348   2.527675
    19  O    4.284113   2.783771   5.370102   5.917155   4.647071
    20  H    3.822779   2.379347   5.076948   5.668219   4.272118
                    6          7          8          9         10
     6  C    0.000000
     7  H    1.114027   0.000000
     8  H    1.116632   1.812208   0.000000
     9  C    1.530684   2.216116   2.214484   0.000000
    10  H    2.216522   2.740884   2.509672   1.114003   0.000000
    11  H    2.210816   2.503625   3.143532   1.116546   1.812567
    12  C    4.259872   5.136954   4.165991   4.813604   5.597077
    13  H    3.930973   4.636758   3.828207   4.808914   5.632076
    14  H    4.877636   5.713660   4.990310   5.276622   6.157801
    15  C    5.379727   6.292335   5.018888   5.925987   6.536765
    16  H    5.924888   6.924456   5.585832   6.216108   6.755286
    17  H    6.207093   7.032807   5.864696   6.877261   7.541920
    18  O    2.360646   3.335011   2.788406   1.415007   2.054211
    19  O    5.159872   6.033733   4.528379   5.841447   6.273354
    20  H    4.592270   5.530989   3.911573   5.139991   5.475404
                   11         12         13         14         15
    11  H    0.000000
    12  C    5.451922   0.000000
    13  H    5.422017   1.116019   0.000000
    14  H    5.735062   1.116100   1.830914   0.000000
    15  C    6.702588   1.530981   2.183129   2.183757   0.000000
    16  H    6.989693   2.209266   3.127603   2.576241   1.114234
    17  H    7.604563   2.202571   2.558062   2.556178   1.114148
    18  O    2.057792   3.981087   4.282238   4.348735   5.025005
    19  O    6.766382   2.394936   2.640183   3.362599   1.410399
    20  H    6.119887   2.512009   2.850282   3.539208   1.915575
                   16         17         18         19         20
    16  H    0.000000
    17  H    1.817519   0.000000
    18  O    5.130516   6.031068   0.000000
    19  O    2.043905   2.033320   5.136902   0.000000
    20  H    2.280652   2.814240   4.430620   0.945013   0.000000
 Stoichiometry    C4H10O5Si
 Framework group  C1[X(C4H10O5Si)]
 Deg. of freedom    54
 Full point group                 C1      NOp   1
 Largest Abelian subgroup         C1      NOp   1
 Largest concise Abelian subgroup C1      NOp   1
                         Standard orientation:                         
 ---------------------------------------------------------------------
 Center     Atomic      Atomic             Coordinates (Angstroms)
 Number     Number       Type             X           Y           Z
 ---------------------------------------------------------------------
      1         14           0        0.653160    0.530062   -0.107323
      2          8           0       -0.895474    0.181470   -0.487615
      3          8           0        0.896772    2.123750    0.109988
      4          1           0        1.406921    2.227512    0.893495
      5          8           0        1.115572   -0.296702    1.226927
      6          6           0        1.881684   -1.380256    0.736147
      7          1           0        2.579938   -1.700638    1.542902
      8          1           0        1.189618   -2.225777    0.505917
      9          6           0        2.606846   -0.858303   -0.506712
     10          1           0        2.975306   -1.674611   -1.169192
     11          1           0        3.464768   -0.191984   -0.248516
     12          6           0       -1.888087    0.581133    0.439008
     13          1           0       -1.677666    0.132818    1.439127
     14          1           0       -1.897636    1.694943    0.509812
     15          6           0       -3.230752    0.074146   -0.094019
     16          1           0       -3.440947    0.438142   -1.125931
     17          1           0       -4.075023    0.357512    0.575486
     18          8           0        1.660380   -0.097701   -1.233301
     19          8           0       -3.203405   -1.335302   -0.137994
     20          1           0       -2.478425   -1.583219   -0.691157
 ---------------------------------------------------------------------
 Rotational constants (GHZ):           2.0886463           0.7169605           0.6331041
 Standard basis: def2TZVPP (5D, 7F)
 There are   522 symmetry adapted cartesian basis functions of A   symmetry.
 There are   461 symmetry adapted basis functions of A   symmetry.
   461 basis functions,   698 primitive gaussians,   522 cartesian basis functions
    44 alpha electrons       44 beta electrons
       nuclear repulsion energy       714.3741036631 Hartrees.
 NAtoms=   20 NActive=   20 NUniq=   20 SFac= 1.00D+00 NAtFMM=   60 NAOKFM=F Big=F
 Integral buffers will be    131072 words long.
 Raffenetti 2 integral format.
 Two-electron integral symmetry is turned on.
 Nuclear repulsion after empirical dispersion term =      714.3640918404 Hartrees.
 One-electron integrals computed using PRISM.
   1 Symmetry operations used in ECPInt.
 ECPInt:  NShTT=   15051 NPrTT=   41591 LenC2=   14043 LenP2D=   30225.
 LDataN:  DoStor=T MaxTD1= 6 Len=  172
 NBasis=   461 RedAO= T EigKep=  2.81D-04  NBF=   461
 NBsUse=   461 1.00D-06 EigRej= -1.00D+00 NBFU=   461
 ExpMin= 7.01D-02 ExpMax= 4.48D+04 ExpMxC= 1.53D+03 IAcc=3 IRadAn=         5 AccDes= 0.00D+00
 Harris functional with IExCor= 4639 and IRadAn=       5 diagonalized for initial guess.
 HarFok:  IExCor= 4639 AccDes= 0.00D+00 IRadAn=         5 IDoV= 1 UseB2=F ITyADJ=14
 ICtDFT=  3500011 ScaDFX=  1.000000  1.000000  1.000000  1.000000
 FoFCou: FMM=F IPFlag=           0 FMFlag=      100000 FMFlg1=           0
         NFxFlg=           0 DoJE=T BraDBF=F KetDBF=T FulRan=T
         wScrn=  0.000000 ICntrl=       500 IOpCl=  0 I1Cent=   200000004 NGrid=           0
         NMat0=    1 NMatS0=      1 NMatT0=    0 NMatD0=    1 NMtDS0=    0 NMtDT0=    0
 Petite list used in FoFCou.
 Requested convergence on RMS density matrix=1.00D-08 within 128 cycles.
 Requested convergence on MAX density matrix=1.00D-06.
 Requested convergence on             energy=1.00D-06.
 No special actions if energy rises.
 Integral accuracy reduced to 1.0D-05 until final iterations.
 Initial convergence to 1.0D-05 achieved.  Increase integral accuracy.
 SCF Done:  E(RwB97XD) =  -824.286117982     A.U. after   14 cycles
            NFock= 14  Conv=0.24D-08     -V/T= 2.0036

 **********************************************************************

            Population analysis using the SCF Density.

 **********************************************************************

 Orbital symmetries:
       Occupied  (A) (A) (A) (A) (A) (A) (A) (A) (A) (A) (A) (A)
                 (A) (A) (A) (A) (A) (A) (A) (A) (A) (A) (A) (A)
                 (A) (A) (A) (A) (A) (A) (A) (A) (A) (A) (A) (A)
                 (A) (A) (A) (A) (A) (A) (A) (A)
       Virtual   (A) (A) (A) (A) (A) (A) (A) (A) (A) (A) (A) (A)
                 (A) (A) (A) (A) (A) (A) (A) (A) (A) (A) (A) (A)
                 (A) (A) (A) (A) (A) (A) (A) (A) (A) (A) (A) (A)
                 (A) (A) (A) (A) (A) (A) (A) (A) (A) (A) (A) (A)
                 (A) (A) (A) (A) (A) (A) (A) (A) (A) (A) (A) (A)
                 (A) (A) (A) (A) (A) (A) (A) (A) (A) (A) (A) (A)
                 (A) (A) (A) (A) (A) (A) (A) (A) (A) (A) (A) (A)
                 (A) (A) (A) (A) (A) (A) (A) (A) (A) (A) (A) (A)
                 (A) (A) (A) (A) (A) (A) (A) (A) (A) (A) (A) (A)
                 (A) (A) (A) (A) (A) (A) (A) (A) (A) (A) (A) (A)
                 (A) (A) (A) (A) (A) (A) (A) (A) (A) (A) (A) (A)
                 (A) (A) (A) (A) (A) (A) (A) (A) (A) (A) (A) (A)
                 (A) (A) (A) (A) (A) (A) (A) (A) (A) (A) (A) (A)
                 (A) (A) (A) (A) (A) (A) (A) (A) (A) (A) (A) (A)
                 (A) (A) (A) (A) (A) (A) (A) (A) (A) (A) (A) (A)
                 (A) (A) (A) (A) (A) (A) (A) (A) (A) (A) (A) (A)
                 (A) (A) (A) (A) (A) (A) (A) (A) (A) (A) (A) (A)
                 (A) (A) (A) (A) (A) (A) (A) (A) (A) (A) (A) (A)
                 (A) (A) (A) (A) (A) (A) (A) (A) (A) (A) (A) (A)
                 (A) (A) (A) (A) (A) (A) (A) (A) (A) (A) (A) (A)
                 (A) (A) (A) (A) (A) (A) (A) (A) (A) (A) (A) (A)
                 (A) (A) (A) (A) (A) (A) (A) (A) (A) (A) (A) (A)
                 (A) (A) (A) (A) (A) (A) (A) (A) (A) (A) (A) (A)
                 (A) (A) (A) (A) (A) (A) (A) (A) (A) (A) (A) (A)
                 (A) (A) (A) (A) (A) (A) (A) (A) (A) (A) (A) (A)
                 (A) (A) (A) (A) (A) (A) (A) (A) (A) (A) (A) (A)
                 (A) (A) (A) (A) (A) (A) (A) (A) (A) (A) (A) (A)
                 (A) (A) (A) (A) (A) (A) (A) (A) (A) (A) (A) (A)
                 (A) (A) (A) (A) (A) (A) (A) (A) (A) (A) (A) (A)
                 (A) (A) (A) (A) (A) (A) (A) (A) (A) (A) (A) (A)
                 (A) (A) (A) (A) (A) (A) (A) (A) (A) (A) (A) (A)
                 (A) (A) (A) (A) (A) (A) (A) (A) (A) (A) (A) (A)
                 (A) (A) (A) (A) (A) (A) (A) (A) (A) (A) (A) (A)
                 (A) (A) (A) (A) (A) (A) (A) (A) (A) (A) (A) (A)
                 (A) (A) (A) (A) (A) (A) (A) (A) (A)
 The electronic state is 1-A.
 Alpha  occ. eigenvalues --  -66.31135 -19.26408 -19.26260 -19.26158 -19.25715
 Alpha  occ. eigenvalues --  -19.23973 -10.35522 -10.35431 -10.34496 -10.33377
 Alpha  occ. eigenvalues --   -5.43135  -3.77712  -3.77590  -3.77520  -1.17640
 Alpha  occ. eigenvalues --   -1.14105  -1.12699  -1.11435  -1.11113  -0.84442
 Alpha  occ. eigenvalues --   -0.83115  -0.72826  -0.71584  -0.65920  -0.61884
 Alpha  occ. eigenvalues --   -0.61156  -0.59831  -0.58553  -0.57461  -0.56066
 Alpha  occ. eigenvalues --   -0.53099  -0.52039  -0.51197  -0.49985  -0.48303
 Alpha  occ. eigenvalues --   -0.45677  -0.44371  -0.43619  -0.42506  -0.40906
 Alpha  occ. eigenvalues --   -0.40187  -0.38352  -0.37700  -0.35685
 Alpha virt. eigenvalues --    0.08919   0.11582   0.12164   0.13748   0.14133
 Alpha virt. eigenvalues --    0.15852   0.16272   0.16398   0.18316   0.18524
 Alpha virt. eigenvalues --    0.19091   0.20509   0.20562   0.21784   0.22035
 Alpha virt. eigenvalues --    0.23948   0.24565   0.25876   0.27160   0.27966
 Alpha virt. eigenvalues --    0.29482   0.30457   0.32132   0.32933   0.34137
 Alpha virt. eigenvalues --    0.35786   0.37638   0.38107   0.38949   0.40355
 Alpha virt. eigenvalues --    0.40956   0.42333   0.42755   0.43659   0.44073
 Alpha virt. eigenvalues --    0.44840   0.45943   0.46560   0.46917   0.47501
 Alpha virt. eigenvalues --    0.48093   0.49098   0.49450   0.49772   0.50675
 Alpha virt. eigenvalues --    0.51631   0.52152   0.54330   0.54912   0.55895
 Alpha virt. eigenvalues --    0.56429   0.57438   0.58838   0.60675   0.61393
 Alpha virt. eigenvalues --    0.62404   0.64130   0.65462   0.67319   0.68771
 Alpha virt. eigenvalues --    0.69291   0.70279   0.72953   0.74143   0.74486
 Alpha virt. eigenvalues --    0.76257   0.76825   0.78453   0.79387   0.80751
 Alpha virt. eigenvalues --    0.82113   0.83586   0.84536   0.86320   0.88315
 Alpha virt. eigenvalues --    0.88791   0.90290   0.90746   0.91982   0.93177
 Alpha virt. eigenvalues --    0.94230   0.95170   0.96839   0.99962   1.00092
 Alpha virt. eigenvalues --    1.02323   1.03645   1.04427   1.05589   1.06785
 Alpha virt. eigenvalues --    1.07693   1.08456   1.09049   1.10327   1.11714
 Alpha virt. eigenvalues --    1.12493   1.14414   1.15614   1.16285   1.17242
 Alpha virt. eigenvalues --    1.17590   1.19133   1.21753   1.23175   1.23945
 Alpha virt. eigenvalues --    1.24150   1.25648   1.27159   1.29418   1.30373
 Alpha virt. eigenvalues --    1.31364   1.31848   1.32825   1.33429   1.34813
 Alpha virt. eigenvalues --    1.36439   1.37310   1.40708   1.42296   1.43367
 Alpha virt. eigenvalues --    1.44522   1.45197   1.45730   1.47751   1.48616
 Alpha virt. eigenvalues --    1.49228   1.50324   1.51825   1.54967   1.55487
 Alpha virt. eigenvalues --    1.57070   1.58717   1.60133   1.61124   1.62713
 Alpha virt. eigenvalues --    1.64383   1.67403   1.68656   1.71773   1.72242
 Alpha virt. eigenvalues --    1.72879   1.79772   1.81658   1.86415   1.87221
 Alpha virt. eigenvalues --    1.88660   1.92271   1.93418   1.94630   1.97127
 Alpha virt. eigenvalues --    1.98225   1.99994   2.00923   2.03795   2.05122
 Alpha virt. eigenvalues --    2.06665   2.07859   2.09870   2.10686   2.11878
 Alpha virt. eigenvalues --    2.15683   2.16201   2.19205   2.21833   2.23157
 Alpha virt. eigenvalues --    2.24131   2.25433   2.29970   2.30299   2.31400
 Alpha virt. eigenvalues --    2.32643   2.34138   2.36863   2.38989   2.40551
 Alpha virt. eigenvalues --    2.43340   2.45827   2.47779   2.51474   2.56560
 Alpha virt. eigenvalues --    2.61575   2.63337   2.64597   2.66763   2.68130
 Alpha virt. eigenvalues --    2.70563   2.71206   2.72778   2.75373   2.78352
 Alpha virt. eigenvalues --    2.79600   2.81137   2.83984   2.85062   2.86185
 Alpha virt. eigenvalues --    2.88172   2.89189   2.90895   2.93733   2.95122
 Alpha virt. eigenvalues --    2.95973   2.96464   2.99522   3.00111   3.01738
 Alpha virt. eigenvalues --    3.03342   3.04403   3.05546   3.06708   3.08058
 Alpha virt. eigenvalues --    3.10651   3.11316   3.12768   3.13722   3.15634
 Alpha virt. eigenvalues --    3.16558   3.17724   3.18815   3.19989   3.21872
 Alpha virt. eigenvalues --    3.22974   3.24804   3.26356   3.26989   3.29193
 Alpha virt. eigenvalues --    3.31635   3.32181   3.33370   3.33911   3.36547
 Alpha virt. eigenvalues --    3.37074   3.39220   3.41342   3.42837   3.44205
 Alpha virt. eigenvalues --    3.45643   3.46533   3.49910   3.51095   3.54122
 Alpha virt. eigenvalues --    3.56780   3.60106   3.61456   3.61966   3.62702
 Alpha virt. eigenvalues --    3.66090   3.66392   3.67492   3.68421   3.69531
 Alpha virt. eigenvalues --    3.70370   3.71648   3.74419   3.75545   3.75878
 Alpha virt. eigenvalues --    3.78405   3.80309   3.81093   3.82962   3.83650
 Alpha virt. eigenvalues --    3.85370   3.87018   3.87558   3.89416   3.89828
 Alpha virt. eigenvalues --    3.91190   3.97445   3.97654   3.99093   4.01097
 Alpha virt. eigenvalues --    4.02793   4.04308   4.05074   4.07790   4.09379
 Alpha virt. eigenvalues --    4.11776   4.11981   4.13566   4.14963   4.15760
 Alpha virt. eigenvalues --    4.16632   4.16958   4.19878   4.20671   4.22377
 Alpha virt. eigenvalues --    4.23380   4.26329   4.27856   4.30161   4.30987
 Alpha virt. eigenvalues --    4.34236   4.34677   4.35606   4.39311   4.39851
 Alpha virt. eigenvalues --    4.40957   4.44517   4.50772   4.54538   4.56442
 Alpha virt. eigenvalues --    4.58601   4.61766   4.62489   4.63828   4.67794
 Alpha virt. eigenvalues --    4.69040   4.72573   4.73780   4.77243   4.78402
 Alpha virt. eigenvalues --    4.79336   4.80231   4.82303   4.82539   4.89402
 Alpha virt. eigenvalues --    4.89706   4.92945   4.93953   4.96958   4.98831
 Alpha virt. eigenvalues --    5.00140   5.01071   5.04155   5.04815   5.06068
 Alpha virt. eigenvalues --    5.08743   5.12777   5.14709   5.18749   5.20048
 Alpha virt. eigenvalues --    5.23727   5.25429   5.27726   5.30271   5.31361
 Alpha virt. eigenvalues --    5.33150   5.34099   5.37325   5.39335   5.40231
 Alpha virt. eigenvalues --    5.43469   5.45579   5.46000   5.47072   5.49416
 Alpha virt. eigenvalues --    5.51956   5.53299   5.55139   5.57034   5.58496
 Alpha virt. eigenvalues --    5.60852   5.65537   5.66794   5.67717   5.68241
 Alpha virt. eigenvalues --    5.70833   5.73191   5.74437   5.75739   5.84917
 Alpha virt. eigenvalues --    5.86836   5.92153   5.96353   5.99422   6.01901
 Alpha virt. eigenvalues --    6.06969   6.10589   6.11731   6.12509   6.20802
 Alpha virt. eigenvalues --    6.21183   6.23935   6.24741   6.53455   6.62954
 Alpha virt. eigenvalues --    6.66802   6.70451   6.72093   6.73832   6.74605
 Alpha virt. eigenvalues --    6.77522   6.78185   6.80576   6.82963   6.83743
 Alpha virt. eigenvalues --    6.84379   6.87520   6.89251   6.92917   6.98011
 Alpha virt. eigenvalues --    7.01169   7.03670   7.05773   7.06673   7.14294
 Alpha virt. eigenvalues --    7.15417   7.16744   7.22077   7.27672   7.34380
 Alpha virt. eigenvalues --    7.35450   7.41149   7.52090   7.60789   7.62772
 Alpha virt. eigenvalues --    7.75788   7.94247  12.37350  23.29866  23.30191
 Alpha virt. eigenvalues --   23.33724  23.38900  43.90332  44.10157  44.15137
 Alpha virt. eigenvalues --   44.22183  44.29006
          Condensed to atoms (all electrons):
               1          2          3          4          5          6
     1  Si  11.556995   0.452636   0.464545  -0.014084   0.406868  -0.037927
     2  O    0.452636   7.913019  -0.018394   0.000471  -0.018620   0.001683
     3  O    0.464545  -0.018394   7.640498   0.331502  -0.023888  -0.000165
     4  H   -0.014084   0.000471   0.331502   0.507849   0.000840  -0.000919
     5  O    0.406868  -0.018620  -0.023888   0.000840   7.902705   0.265395
     6  C   -0.037927   0.001683  -0.000165  -0.000919   0.265395   4.718224
     7  H    0.001978  -0.000090  -0.000056  -0.000094  -0.035518   0.388299
     8  H    0.001667   0.000807  -0.000230   0.000097  -0.044259   0.435655
     9  C   -0.035901  -0.001103  -0.003654   0.000040  -0.064887   0.315725
    10  H    0.001986  -0.000011  -0.000154  -0.000035   0.003687  -0.017314
    11  H   -0.002695  -0.000348   0.000898   0.000814   0.005399  -0.048004
    12  C   -0.021396   0.207700  -0.013949   0.000220  -0.003155   0.001488
    13  H   -0.008666  -0.042973  -0.000682   0.000347   0.007950   0.000075
    14  H   -0.011964  -0.039318   0.006672  -0.000361  -0.000205  -0.000078
    15  C   -0.001053  -0.051909   0.000501  -0.000001   0.000067   0.000064
    16  H   -0.000292   0.000401  -0.000009   0.000010  -0.000017  -0.000002
    17  H    0.000525   0.004536   0.000001   0.000001   0.000024  -0.000004
    18  O    0.455774  -0.018675  -0.021824  -0.000504  -0.011574  -0.059025
    19  O    0.000676  -0.005239  -0.000005   0.000003  -0.000083  -0.000111
    20  H    0.001147   0.015314   0.000006  -0.000001  -0.000003  -0.000046
               7          8          9         10         11         12
     1  Si   0.001978   0.001667  -0.035901   0.001986  -0.002695  -0.021396
     2  O   -0.000090   0.000807  -0.001103  -0.000011  -0.000348   0.207700
     3  O   -0.000056  -0.000230  -0.003654  -0.000154   0.000898  -0.013949
     4  H   -0.000094   0.000097   0.000040  -0.000035   0.000814   0.000220
     5  O   -0.035518  -0.044259  -0.064887   0.003687   0.005399  -0.003155
     6  C    0.388299   0.435655   0.315725  -0.017314  -0.048004   0.001488
     7  H    0.622532  -0.039774  -0.011842   0.004677  -0.009031   0.000045
     8  H   -0.039774   0.615744  -0.049865  -0.007479   0.008783  -0.000338
     9  C   -0.011842  -0.049865   4.724244   0.396658   0.425978  -0.001387
    10  H    0.004677  -0.007479   0.396658   0.616671  -0.040125   0.000089
    11  H   -0.009031   0.008783   0.425978  -0.040125   0.639181  -0.000122
    12  C    0.000045  -0.000338  -0.001387   0.000089  -0.000122   4.805299
    13  H   -0.000035  -0.000325   0.000595  -0.000007   0.000002   0.404424
    14  H    0.000004   0.000030  -0.000186  -0.000002  -0.000004   0.394024
    15  C    0.000002  -0.000094   0.000053  -0.000004  -0.000002   0.357893
    16  H    0.000000   0.000015  -0.000003   0.000000   0.000000  -0.053810
    17  H    0.000000  -0.000004   0.000001   0.000000   0.000000  -0.019566
    18  O    0.003841   0.003691   0.257677  -0.035245  -0.047244  -0.000328
    19  O    0.000002   0.000241  -0.000010  -0.000000   0.000000  -0.046563
    20  H   -0.000002   0.000069  -0.000018   0.000002   0.000000  -0.008484
              13         14         15         16         17         18
     1  Si  -0.008666  -0.011964  -0.001053  -0.000292   0.000525   0.455774
     2  O   -0.042973  -0.039318  -0.051909   0.000401   0.004536  -0.018675
     3  O   -0.000682   0.006672   0.000501  -0.000009   0.000001  -0.021824
     4  H    0.000347  -0.000361  -0.000001   0.000010   0.000001  -0.000504
     5  O    0.007950  -0.000205   0.000067  -0.000017   0.000024  -0.011574
     6  C    0.000075  -0.000078   0.000064  -0.000002  -0.000004  -0.059025
     7  H   -0.000035   0.000004   0.000002   0.000000   0.000000   0.003841
     8  H   -0.000325   0.000030  -0.000094   0.000015  -0.000004   0.003691
     9  C    0.000595  -0.000186   0.000053  -0.000003   0.000001   0.257677
    10  H   -0.000007  -0.000002  -0.000004   0.000000   0.000000  -0.035245
    11  H    0.000002  -0.000004  -0.000002   0.000000   0.000000  -0.047244
    12  C    0.404424   0.394024   0.357893  -0.053810  -0.019566  -0.000328
    13  H    0.599527  -0.037342  -0.022369   0.007767  -0.003645   0.000090
    14  H   -0.037342   0.627531  -0.017931   0.000192  -0.000981  -0.000047
    15  C   -0.022369  -0.017931   4.612380   0.437118   0.385474  -0.000254
    16  H    0.007767   0.000192   0.437118   0.626834  -0.033947   0.000009
    17  H   -0.003645  -0.000981   0.385474  -0.033947   0.622722   0.000000
    18  O    0.000090  -0.000047  -0.000254   0.000009   0.000000   7.862121
    19  O    0.002986   0.005589   0.282928  -0.049002  -0.035001   0.000006
    20  H   -0.002014   0.000680  -0.046449  -0.008379   0.010637  -0.000017
              19         20
     1  Si   0.000676   0.001147
     2  O   -0.005239   0.015314
     3  O   -0.000005   0.000006
     4  H    0.000003  -0.000001
     5  O   -0.000083  -0.000003
     6  C   -0.000111  -0.000046
     7  H    0.000002  -0.000002
     8  H    0.000241   0.000069
     9  C   -0.000010  -0.000018
    10  H   -0.000000   0.000002
    11  H    0.000000   0.000000
    12  C   -0.046563  -0.008484
    13  H    0.002986  -0.002014
    14  H    0.005589   0.000680
    15  C    0.282928  -0.046449
    16  H   -0.049002  -0.008379
    17  H   -0.035001   0.010637
    18  O    0.000006  -0.000017
    19  O    7.858960   0.332469
    20  H    0.332469   0.529987
 Mulliken charges:
               1
     1  Si   0.789180
     2  O   -0.399889
     3  O   -0.361613
     4  H    0.173805
     5  O   -0.390727
     6  C    0.036989
     7  H    0.075062
     8  H    0.075569
     9  C    0.047887
    10  H    0.076605
    11  H    0.066518
    12  C   -0.002083
    13  H    0.094295
    14  H    0.073694
    15  C    0.063585
    16  H    0.073114
    17  H    0.069226
    18  O   -0.388472
    19  O   -0.347846
    20  H    0.175100
 Sum of Mulliken charges =  -0.00000
 Mulliken charges with hydrogens summed into heavy atoms:
               1
     1  Si   0.789180
     2  O   -0.399889
     3  O   -0.187808
     5  O   -0.390727
     6  C    0.187620
     9  C    0.191010
    12  C    0.165906
    15  C    0.205925
    18  O   -0.388472
    19  O   -0.172746
 Electronic spatial extent (au):  <R**2>=           1884.6940
 Charge=              0.0000 electrons
 Dipole moment (field-independent basis, Debye):
    X=              2.2609    Y=              0.0804    Z=              1.3994  Tot=              2.6602
 Quadrupole moment (field-independent basis, Debye-Ang):
   XX=            -62.5441   YY=            -64.6855   ZZ=            -67.2950
   XY=             -8.1619   XZ=              2.9976   YZ=              4.1752
 Traceless Quadrupole moment (field-independent basis, Debye-Ang):
   XX=              2.2975   YY=              0.1560   ZZ=             -2.4535
   XY=             -8.1619   XZ=              2.9976   YZ=              4.1752
 Octapole moment (field-independent basis, Debye-Ang**2):
  XXX=             37.5273  YYY=             -6.4213  ZZZ=             -0.0655  XYY=             15.1607
  XXY=             20.8922  XXZ=              5.3972  XZZ=             -5.1090  YZZ=              2.7004
  YYZ=              3.9842  XYZ=              1.3882
 Hexadecapole moment (field-independent basis, Debye-Ang**3):
 XXXX=          -1667.7281 YYYY=           -478.2265 ZZZZ=           -250.4200 XXXY=            -84.2004
 XXXZ=              2.5574 YYYX=              7.7010 YYYZ=             23.9823 ZZZX=             11.0643
 ZZZY=              5.4152 XXYY=           -367.4204 XXZZ=           -307.5764 YYZZ=           -105.1344
 XXYZ=             16.1303 YYXZ=             18.5363 ZZXY=              7.6391
 N-N= 7.143640918404D+02 E-N=-3.375783659264D+03  KE= 8.213158041053D+02
   1 Symmetry operations used in ECPInt.
 ECPInt:  NShTT=   15051 NPrTT=   41591 LenC2=   14043 LenP2D=   30225.
 LDataN:  DoStor=T MaxTD1= 7 Len=  274
 Calling FoFJK, ICntrl=      2127 FMM=F ISym2X=0 I1Cent= 0 IOpClX= 0 NMat=1 NMatS=1 NMatT=0.
 ***** Axes restored to original set *****
 -------------------------------------------------------------------
 Center     Atomic                   Forces (Hartrees/Bohr)
 Number     Number              X              Y              Z
 -------------------------------------------------------------------
      1       14           0.015342388   -0.006489158    0.010850848
      2        8          -0.011792459   -0.002153382    0.004257485
      3        8           0.015848960   -0.004514164   -0.000090625
      4        1          -0.016225833    0.013983975    0.001741290
      5        8          -0.002911347    0.003821050    0.002275403
      6        6          -0.009721265    0.002174676   -0.024135221
      7        1           0.009473578   -0.007565853    0.008493052
      8        1          -0.012641710   -0.000592797    0.006815054
      9        6          -0.011103945   -0.020404382   -0.006606421
     10        1          -0.001303661    0.014464665    0.003093846
     11        1           0.010180118   -0.001281522   -0.009528638
     12        6           0.010636682    0.012651737    0.012498273
     13        1           0.006137885   -0.005776315    0.011104540
     14        1           0.003099193   -0.003272213   -0.012454848
     15        6           0.004019489   -0.000039178   -0.003702319
     16        1          -0.008768749    0.012325217   -0.002034078
     17        1          -0.009998634   -0.011874747    0.001410954
     18        8           0.006117339    0.003529761    0.000325646
     19        8           0.011240112    0.012626673   -0.003876531
     20        1          -0.007628143   -0.011614041   -0.000437709
 -------------------------------------------------------------------
 Cartesian Forces:  Max     0.024135221 RMS     0.009376485

 GradGradGradGradGradGradGradGradGradGradGradGradGradGradGradGradGradGrad
 Berny optimization.
 FormGI is forming the generalized inverse of G from B-inverse, IUseBI=4.
 Internal  Forces:  Max     0.019560457 RMS     0.006689234
 Search for a local minimum.
 Step number   1 out of a maximum of  107
 All quantities printed in internal units (Hartrees-Bohrs-Radians)
 Mixed Optimization -- RFO/linear search
 Second derivative matrix not updated -- first step.
 ITU=  0
     Eigenvalues ---    0.00356   0.00946   0.01487   0.01554   0.03048
     Eigenvalues ---    0.03912   0.03985   0.05008   0.05056   0.05219
     Eigenvalues ---    0.05457   0.05497   0.05534   0.05823   0.06089
     Eigenvalues ---    0.10261   0.10691   0.11037   0.11115   0.11388
     Eigenvalues ---    0.11437   0.11613   0.13549   0.13684   0.13731
     Eigenvalues ---    0.14444   0.16000   0.16000   0.16991   0.21185
     Eigenvalues ---    0.21732   0.22013   0.22050   0.25000   0.28074
     Eigenvalues ---    0.29333   0.31908   0.31917   0.31963   0.31971
     Eigenvalues ---    0.32156   0.32165   0.32177   0.32180   0.40051
     Eigenvalues ---    0.40377   0.43145   0.43519   0.43940   0.44402
     Eigenvalues ---    0.45447   0.46370   0.58826   0.59843
 RFO step:  Lambda=-1.67596129D-02 EMin= 3.56124110D-03
 Linear search not attempted -- first point.
 Iteration  1 RMS(Cart)=  0.07071968 RMS(Int)=  0.00203289
 Iteration  2 RMS(Cart)=  0.00218791 RMS(Int)=  0.00057514
 Iteration  3 RMS(Cart)=  0.00000384 RMS(Int)=  0.00057513
 Iteration  4 RMS(Cart)=  0.00000000 RMS(Int)=  0.00057513
 Variable       Old X    -DE/DX   Delta X   Delta X   Delta X     New X
                                 (Linear)    (Quad)   (Total)
    R1        3.08460  -0.00306   0.00000  -0.00649  -0.00649   3.07811
    R2        3.07417   0.00603   0.00000   0.01255   0.01255   3.08672
    R3        3.09222   0.01143   0.00000   0.02368   0.02363   3.11586
    R4        3.09154   0.00507   0.00000   0.00968   0.00967   3.10121
    R5        2.67491   0.00844   0.00000   0.01884   0.01884   2.69375
    R6        1.77765   0.01956   0.00000   0.03180   0.03180   1.80945
    R7        2.67373   0.01309   0.00000   0.03044   0.03058   2.70431
    R8        2.10521  -0.01442   0.00000  -0.04260  -0.04260   2.06261
    R9        2.11013  -0.01343   0.00000  -0.04000  -0.04000   2.07013
   R10        2.89257  -0.00426   0.00000  -0.01300  -0.01321   2.87936
   R11        2.10516  -0.01449   0.00000  -0.04279  -0.04279   2.06237
   R12        2.10997  -0.01291   0.00000  -0.03842  -0.03842   2.07154
   R13        2.67398   0.01223   0.00000   0.02796   0.02810   2.70207
   R14        2.10897  -0.01370   0.00000  -0.04073  -0.04073   2.06824
   R15        2.10912  -0.01283   0.00000  -0.03813  -0.03813   2.07099
   R16        2.89314  -0.01072   0.00000  -0.03457  -0.03457   2.85856
   R17        2.10560  -0.01166   0.00000  -0.03446  -0.03446   2.07114
   R18        2.10543  -0.01535   0.00000  -0.04535  -0.04535   2.06009
   R19        2.66527   0.00400   0.00000   0.00878   0.00878   2.67405
   R20        1.78582   0.01390   0.00000   0.02297   0.02297   1.80879
    A1        1.96320  -0.00872   0.00000  -0.03692  -0.03685   1.92635
    A2        1.92855   0.00993   0.00000   0.04861   0.04853   1.97709
    A3        1.91964  -0.00146   0.00000  -0.01387  -0.01319   1.90646
    A4        1.92169   0.00006   0.00000  -0.00254  -0.00188   1.91981
    A5        1.95591   0.00965   0.00000   0.04542   0.04535   2.00126
    A6        1.76536  -0.00898   0.00000  -0.03862  -0.03861   1.72676
    A7        2.04035   0.01419   0.00000   0.05318   0.05318   2.09353
    A8        1.87605   0.01579   0.00000   0.08933   0.08933   1.96538
    A9        1.83083   0.00624   0.00000   0.03928   0.03899   1.86983
   A10        1.88434   0.00512   0.00000   0.03925   0.03909   1.92342
   A11        1.89211   0.00122   0.00000   0.01652   0.01669   1.90880
   A12        1.85149  -0.00151   0.00000  -0.00058  -0.00118   1.85032
   A13        1.89654   0.00081   0.00000  -0.00274  -0.00369   1.89286
   A14        1.97049  -0.00118   0.00000  -0.00518  -0.00515   1.96534
   A15        1.96537  -0.00398   0.00000  -0.04236  -0.04280   1.92256
   A16        1.97109  -0.00156   0.00000  -0.00767  -0.00763   1.96345
   A17        1.96032  -0.00385   0.00000  -0.04095  -0.04146   1.91886
   A18        1.85808  -0.00094   0.00000   0.00178   0.00131   1.85938
   A19        1.89723   0.00069   0.00000  -0.00510  -0.00614   1.89109
   A20        1.88573   0.00471   0.00000   0.03570   0.03555   1.92128
   A21        1.88800   0.00142   0.00000   0.02112   0.02140   1.90940
   A22        1.91878   0.00043   0.00000   0.00126   0.00131   1.92009
   A23        1.90635   0.00162   0.00000   0.02660   0.02638   1.93273
   A24        1.86876   0.00137   0.00000   0.00978   0.00963   1.87839
   A25        1.92372  -0.00062   0.00000  -0.01435  -0.01452   1.90921
   A26        1.92232  -0.00301   0.00000  -0.02730  -0.02737   1.89496
   A27        1.92309   0.00030   0.00000   0.00521   0.00486   1.92795
   A28        1.96027  -0.00889   0.00000  -0.05647  -0.05833   1.90193
   A29        1.95102  -0.00344   0.00000  -0.03191  -0.03312   1.91790
   A30        1.90157   0.00866   0.00000   0.04626   0.04661   1.94818
   A31        1.90761   0.00204   0.00000  -0.01212  -0.01489   1.89272
   A32        1.87679   0.00434   0.00000   0.05949   0.06034   1.93713
   A33        1.86251  -0.00201   0.00000   0.00193   0.00252   1.86503
   A34        1.83864   0.00779   0.00000   0.04173   0.04149   1.88014
   A35        1.87056   0.00008   0.00000   0.00044   0.00044   1.87099
    D1       -1.01882   0.00147   0.00000   0.00820   0.00848  -1.01034
    D2        1.13659   0.00264   0.00000   0.01439   0.01448   1.15107
    D3        3.07096  -0.00359   0.00000  -0.01329  -0.01366   3.05731
    D4        2.34667   0.00296   0.00000   0.02143   0.02153   2.36819
    D5        0.18744  -0.00373   0.00000  -0.01334  -0.01338   0.17405
    D6       -1.76294   0.00178   0.00000   0.00976   0.00971  -1.75324
    D7        1.77021  -0.00088   0.00000  -0.00082  -0.00143   1.76879
    D8       -2.33373  -0.00499   0.00000  -0.01554  -0.01568  -2.34941
    D9       -0.26244   0.00138   0.00000   0.01519   0.01522  -0.24721
   D10       -2.22151  -0.00499   0.00000  -0.01384  -0.01430  -2.23581
   D11        1.86413   0.00038   0.00000   0.01138   0.01094   1.87506
   D12       -0.18231   0.00117   0.00000   0.01630   0.01631  -0.16600
   D13       -0.99541  -0.00096   0.00000  -0.00654  -0.00654  -1.00195
   D14        1.11745  -0.00043   0.00000  -0.00661  -0.00679   1.11067
   D15       -3.08355   0.00160   0.00000   0.01977   0.01994  -3.06361
   D16        2.70649  -0.00042   0.00000  -0.01980  -0.02045   2.68604
   D17       -1.52510   0.00398   0.00000   0.00724   0.00724  -1.51786
   D18        0.58975  -0.00093   0.00000  -0.03433  -0.03518   0.55457
   D19       -2.81664   0.00156   0.00000   0.02748   0.02744  -2.78920
   D20        1.31328   0.00483   0.00000   0.07200   0.07148   1.38476
   D21       -0.75005   0.00583   0.00000   0.06798   0.06755  -0.68250
   D22        1.40617  -0.00307   0.00000  -0.01709  -0.01669   1.38948
   D23       -0.74709   0.00020   0.00000   0.02744   0.02735  -0.71974
   D24       -2.81042   0.00120   0.00000   0.02342   0.02342  -2.78700
   D25       -0.74964  -0.00011   0.00000   0.02376   0.02376  -0.72588
   D26       -2.90291   0.00316   0.00000   0.06829   0.06780  -2.83510
   D27        1.31695   0.00416   0.00000   0.06427   0.06387   1.38082
   D28        0.53698  -0.00051   0.00000  -0.03468  -0.03562   0.50137
   D29        2.65886  -0.00032   0.00000  -0.02324  -0.02395   2.63491
   D30       -1.57338   0.00380   0.00000   0.00136   0.00129  -1.57209
   D31       -0.97917  -0.00548   0.00000  -0.08297  -0.08183  -1.06101
   D32       -3.13083   0.00108   0.00000  -0.00080  -0.00179  -3.13263
   D33        1.09825   0.00014   0.00000  -0.01332  -0.01360   1.08465
   D34       -3.06503  -0.00512   0.00000  -0.07501  -0.07377  -3.13880
   D35        1.06649   0.00143   0.00000   0.00716   0.00627   1.07276
   D36       -0.98761   0.00049   0.00000  -0.00536  -0.00554  -0.99315
   D37        1.09219  -0.00256   0.00000  -0.04245  -0.04128   1.05091
   D38       -1.05947   0.00400   0.00000   0.03973   0.03876  -1.02071
   D39       -3.11357   0.00305   0.00000   0.02720   0.02695  -3.08662
   D40       -1.01335   0.00102   0.00000   0.00272   0.00183  -1.01152
   D41        1.11546  -0.00204   0.00000  -0.00260  -0.00152   1.11394
   D42       -3.12261   0.00148   0.00000   0.01404   0.01385  -3.10876
         Item               Value     Threshold  Converged?
 Maximum Force            0.019560     0.000450     NO 
 RMS     Force            0.006689     0.000300     NO 
 Maximum Displacement     0.236953     0.001800     NO 
 RMS     Displacement     0.070386     0.001200     NO 
 Predicted change in Energy=-9.202966D-03
 GradGradGradGradGradGradGradGradGradGradGradGradGradGradGradGradGradGrad

                          Input orientation:                          
 ---------------------------------------------------------------------
 Center     Atomic      Atomic             Coordinates (Angstroms)
 Number     Number       Type             X           Y           Z
 ---------------------------------------------------------------------
      1         14           0       -0.005558    0.028370   -0.006167
      2          8           0        1.623111    0.046438    0.011718
      3          8           0       -0.597370    0.835602    1.284649
      4          1           0       -1.322451    1.417047    1.054388
      5          8           0       -0.648771    0.638726   -1.396280
      6          6           0       -1.041299   -0.475523   -2.203932
      7          1           0       -1.850511   -0.186690   -2.877053
      8          1           0       -0.188690   -0.804649   -2.807903
      9          6           0       -1.451988   -1.575025   -1.232301
     10          1           0       -1.434168   -2.565353   -1.690554
     11          1           0       -2.465320   -1.385349   -0.859651
     12          6           0        2.320984    1.289367    0.019745
     13          1           0        2.030891    1.887432   -0.849750
     14          1           0        2.104058    1.850289    0.935907
     15          6           0        3.799615    0.985034   -0.076433
     16          1           0        4.096718    0.383511    0.790235
     17          1           0        4.370883    1.913435   -0.064079
     18          8           0       -0.527496   -1.521496   -0.142808
     19          8           0        4.118172    0.323247   -1.285941
     20          1           0        3.596491   -0.478711   -1.315689
 ---------------------------------------------------------------------
                    Distance matrix (angstroms):
                    1          2          3          4          5
     1  Si   0.000000
     2  O    1.628868   0.000000
     3  O    1.633422   2.678371   0.000000
     4  H    2.188014   3.412047   0.957518   0.000000
     5  O    1.648840   2.737647   2.688639   2.658082   0.000000
     6  C    2.481299   3.504373   3.753174   3.778560   1.431060
     7  H    3.419371   4.523870   4.464886   4.278674   2.078024
     8  H    2.928683   3.457923   4.427913   4.597677   2.070672
     9  C    2.483232   3.692284   3.588388   3.768052   2.360666
    10  H    3.406683   4.366479   4.595493   4.838047   3.312035
    11  H    2.962679   4.418661   3.608307   3.580938   2.772129
    12  C    2.646428   1.425469   3.212892   3.789645   3.353790
    13  H    2.883551   2.073082   3.545386   3.884830   3.006418
    14  H    2.942341   2.083102   2.906704   3.455821   3.805923
    15  C    3.924218   2.371898   4.605253   5.263170   4.652963
    16  H    4.193930   2.615040   4.741655   5.523166   5.231218
    17  H    4.765507   3.322901   5.259690   5.823352   5.347576
    18  O    1.641090   2.665973   2.756524   3.271126   2.500492
    19  O    4.327808   2.825928   5.395070   6.022783   4.778644
    20  H    3.866101   2.435573   5.106627   5.779892   4.390604
                    6          7          8          9         10
     6  C    0.000000
     7  H    1.091486   0.000000
     8  H    1.095466   1.774346   0.000000
     9  C    1.523692   2.188951   2.161463   0.000000
    10  H    2.187531   2.690569   2.428943   1.091359   0.000000
    11  H    2.159331   2.425837   3.052202   1.096214   1.773720
    12  C    4.400515   5.288815   4.321916   4.899764   5.646695
    13  H    4.105572   4.845330   4.001025   4.925992   5.704462
    14  H    5.016101   5.858888   5.130448   5.392529   6.238208
    15  C    5.485794   6.414074   5.154655   5.955608   6.527107
    16  H    6.008510   7.010254   5.720405   6.222110   6.740980
    17  H    6.291090   7.143466   5.975471   6.887665   7.510232
    18  O    2.367760   3.317857   2.780537   1.429876   2.075381
    19  O    5.301027   6.198133   4.705058   5.884981   6.271858
    20  H    4.722084   5.673884   4.081731   5.166817   5.459133
                   11         12         13         14         15
    11  H    0.000000
    12  C    5.553031   0.000000
    13  H    5.561214   1.094467   0.000000
    14  H    5.879846   1.095921   1.787542   0.000000
    15  C    6.744001   1.512686   2.130898   2.156018   0.000000
    16  H    6.993663   2.137161   3.036276   2.478579   1.095999
    17  H    7.632076   2.144428   2.468506   2.478398   1.090151
    18  O    2.070642   4.005149   4.320405   4.411082   5.001099
    19  O    6.814938   2.422414   2.644556   3.365282   1.415044
    20  H    6.146178   2.556638   2.875210   3.566691   1.928617
                   16         17         18         19         20
    16  H    0.000000
    17  H    1.773609   0.000000
    18  O    5.087531   5.983233   0.000000
    19  O    2.077162   2.021264   5.127579   0.000000
    20  H    2.329929   2.808661   4.412518   0.957169   0.000000
 Stoichiometry    C4H10O5Si
 Framework group  C1[X(C4H10O5Si)]
 Deg. of freedom    54
 Full point group                 C1      NOp   1
 Largest Abelian subgroup         C1      NOp   1
 Largest concise Abelian subgroup C1      NOp   1
                         Standard orientation:                         
 ---------------------------------------------------------------------
 Center     Atomic      Atomic             Coordinates (Angstroms)
 Number     Number       Type             X           Y           Z
 ---------------------------------------------------------------------
      1         14           0        0.644168    0.543300   -0.113426
      2          8           0       -0.907349    0.184007   -0.455351
      3          8           0        0.832010    2.158008    0.046264
      4          1           0        1.367505    2.393089    0.804435
      5          8           0        1.210183   -0.225871    1.230701
      6          6           0        1.999510   -1.332176    0.782388
      7          1           0        2.747570   -1.590652    1.534011
      8          1           0        1.351113   -2.201071    0.625386
      9          6           0        2.622344   -0.896444   -0.538162
     10          1           0        2.950041   -1.742541   -1.144626
     11          1           0        3.488462   -0.251848   -0.348372
     12          6           0       -1.944408    0.588601    0.435028
     13          1           0       -1.761963    0.178869    1.433373
     14          1           0       -2.000056    1.681472    0.494862
     15          6           0       -3.245018    0.020717   -0.088555
     16          1           0       -3.432782    0.424805   -1.089889
     17          1           0       -4.067690    0.316646    0.562648
     18          8           0        1.619860   -0.152045   -1.234898
     19          8           0       -3.225785   -1.394059   -0.108316
     20          1           0       -2.486480   -1.659467   -0.655271
 ---------------------------------------------------------------------
 Rotational constants (GHZ):           2.0429685           0.7026199           0.6184741
 Standard basis: def2TZVPP (5D, 7F)
 There are   522 symmetry adapted cartesian basis functions of A   symmetry.
 There are   461 symmetry adapted basis functions of A   symmetry.
   461 basis functions,   698 primitive gaussians,   522 cartesian basis functions
    44 alpha electrons       44 beta electrons
       nuclear repulsion energy       709.1841959778 Hartrees.
 NAtoms=   20 NActive=   20 NUniq=   20 SFac= 1.00D+00 NAtFMM=   60 NAOKFM=F Big=F
 Integral buffers will be    131072 words long.
 Raffenetti 2 integral format.
 Two-electron integral symmetry is turned on.
 Nuclear repulsion after empirical dispersion term =      709.1743513790 Hartrees.
 One-electron integrals computed using PRISM.
   1 Symmetry operations used in ECPInt.
 ECPInt:  NShTT=   15051 NPrTT=   41591 LenC2=   14007 LenP2D=   30044.
 LDataN:  DoStor=T MaxTD1= 6 Len=  172
 NBasis=   461 RedAO= T EigKep=  2.88D-04  NBF=   461
 NBsUse=   461 1.00D-06 EigRej= -1.00D+00 NBFU=   461
 Initial guess from the checkpoint file:  "QmonoLBiL_EG_20kmmx_confOpt_3.chk"
 B after Tr=    -0.000000    0.000000   -0.000000
         Rot=    0.999837    0.015909   -0.004755   -0.007107 Ang=   2.07 deg.
 ExpMin= 7.01D-02 ExpMax= 4.48D+04 ExpMxC= 1.53D+03 IAcc=3 IRadAn=         5 AccDes= 0.00D+00
 Harris functional with IExCor= 4639 and IRadAn=       5 diagonalized for initial guess.
 HarFok:  IExCor= 4639 AccDes= 0.00D+00 IRadAn=         5 IDoV= 1 UseB2=F ITyADJ=14
 ICtDFT=  3500011 ScaDFX=  1.000000  1.000000  1.000000  1.000000
 FoFCou: FMM=F IPFlag=           0 FMFlag=      100000 FMFlg1=           0
         NFxFlg=           0 DoJE=T BraDBF=F KetDBF=T FulRan=T
         wScrn=  0.000000 ICntrl=       500 IOpCl=  0 I1Cent=   200000004 NGrid=           0
         NMat0=    1 NMatS0=      1 NMatT0=    0 NMatD0=    1 NMtDS0=    0 NMtDT0=    0
 Petite list used in FoFCou.
 Requested convergence on RMS density matrix=1.00D-08 within 128 cycles.
 Requested convergence on MAX density matrix=1.00D-06.
 Requested convergence on             energy=1.00D-06.
 No special actions if energy rises.
 Integral accuracy reduced to 1.0D-05 until final iterations.
 Initial convergence to 1.0D-05 achieved.  Increase integral accuracy.
 SCF Done:  E(RwB97XD) =  -824.295363712     A.U. after   11 cycles
            NFock= 11  Conv=0.96D-08     -V/T= 2.0036
   1 Symmetry operations used in ECPInt.
 ECPInt:  NShTT=   15051 NPrTT=   41591 LenC2=   14007 LenP2D=   30044.
 LDataN:  DoStor=T MaxTD1= 7 Len=  274
 Calling FoFJK, ICntrl=      2127 FMM=F ISym2X=0 I1Cent= 0 IOpClX= 0 NMat=1 NMatS=1 NMatT=0.
 ***** Axes restored to original set *****
 -------------------------------------------------------------------
 Center     Atomic                   Forces (Hartrees/Bohr)
 Number     Number              X              Y              Z
 -------------------------------------------------------------------
      1       14           0.002865765   -0.003098604    0.001260060
      2        8          -0.007464069    0.003255655    0.003225085
      3        8           0.002708214    0.002993290   -0.006537432
      4        1           0.000218195   -0.001149747    0.003645804
      5        8          -0.002800183   -0.002359415   -0.002813664
      6        6           0.002431015    0.001932168   -0.002206742
      7        1           0.000456730    0.001023016    0.002274885
      8        1          -0.000607849    0.000974918    0.000006125
      9        6          -0.002012571   -0.001848001    0.002771457
     10        1           0.001940287    0.001002910    0.001141268
     11        1           0.000935604   -0.001010331    0.000287964
     12        6           0.004650568   -0.000266607   -0.000104363
     13        1          -0.001656115   -0.000024589    0.000702952
     14        1           0.000080421   -0.001284873   -0.001170482
     15        6           0.000123619   -0.003167342   -0.002921591
     16        1           0.000567683    0.000341115   -0.000050003
     17        1          -0.000426537    0.000114540    0.000033398
     18        8          -0.001357007    0.000399360   -0.003623313
     19        8           0.000226085    0.002766874    0.004002701
     20        1          -0.000879854   -0.000594340    0.000075890
 -------------------------------------------------------------------
 Cartesian Forces:  Max     0.007464069 RMS     0.002323001

 GradGradGradGradGradGradGradGradGradGradGradGradGradGradGradGradGradGrad
 Berny optimization.
 Using GEDIIS/GDIIS optimizer.
 FormGI is forming the generalized inverse of G from B-inverse, IUseBI=4.
 Internal  Forces:  Max     0.007054625 RMS     0.001721570
 Search for a local minimum.
 Step number   2 out of a maximum of  107
 All quantities printed in internal units (Hartrees-Bohrs-Radians)
 Mixed Optimization -- RFO/linear search
 Update second derivatives using D2CorX and points    1    2
 DE= -9.25D-03 DEPred=-9.20D-03 R= 1.00D+00
 TightC=F SS=  1.41D+00  RLast= 3.23D-01 DXNew= 5.0454D-01 9.6793D-01
 Trust test= 1.00D+00 RLast= 3.23D-01 DXMaxT set to 5.05D-01
 ITU=  1  0
 Use linear search instead of GDIIS.
     Eigenvalues ---    0.00357   0.00939   0.01487   0.01554   0.03017
     Eigenvalues ---    0.03908   0.03976   0.04955   0.04997   0.05064
     Eigenvalues ---    0.05466   0.05841   0.05901   0.05988   0.06426
     Eigenvalues ---    0.10412   0.10728   0.10981   0.11077   0.11171
     Eigenvalues ---    0.11396   0.11776   0.13525   0.13660   0.13918
     Eigenvalues ---    0.14195   0.14692   0.16004   0.16353   0.20888
     Eigenvalues ---    0.21903   0.22019   0.22088   0.24274   0.28232
     Eigenvalues ---    0.29389   0.31716   0.31912   0.31937   0.32021
     Eigenvalues ---    0.32102   0.32159   0.32179   0.32473   0.40280
     Eigenvalues ---    0.40705   0.43156   0.43559   0.44366   0.44795
     Eigenvalues ---    0.45789   0.47255   0.58767   0.60741
 RFO step:  Lambda=-1.82588456D-03 EMin= 3.57308071D-03
 Quartic linear search produced a step of  0.10904.
 Iteration  1 RMS(Cart)=  0.04940800 RMS(Int)=  0.00110632
 Iteration  2 RMS(Cart)=  0.00149887 RMS(Int)=  0.00011399
 Iteration  3 RMS(Cart)=  0.00000125 RMS(Int)=  0.00011399
 Iteration  4 RMS(Cart)=  0.00000000 RMS(Int)=  0.00011399
 Variable       Old X    -DE/DX   Delta X   Delta X   Delta X     New X
                                 (Linear)    (Quad)   (Total)
    R1        3.07811  -0.00472  -0.00071  -0.01133  -0.01204   3.06607
    R2        3.08672  -0.00243   0.00137  -0.00603  -0.00467   3.08206
    R3        3.11586   0.00185   0.00258   0.00266   0.00525   3.12111
    R4        3.10121  -0.00007   0.00105  -0.00191  -0.00084   3.10038
    R5        2.69375  -0.00052   0.00205  -0.00171   0.00034   2.69409
    R6        1.80945  -0.00174   0.00347  -0.00380  -0.00033   1.80911
    R7        2.70431  -0.00307   0.00333  -0.00804  -0.00471   2.69960
    R8        2.06261  -0.00147  -0.00464  -0.00412  -0.00876   2.05385
    R9        2.07013  -0.00077  -0.00436  -0.00180  -0.00616   2.06397
   R10        2.87936   0.00212  -0.00144   0.01206   0.01058   2.88994
   R11        2.06237  -0.00136  -0.00467  -0.00373  -0.00839   2.05398
   R12        2.07154  -0.00094  -0.00419  -0.00242  -0.00661   2.06493
   R13        2.70207  -0.00339   0.00306  -0.00882  -0.00575   2.69632
   R14        2.06824  -0.00013  -0.00444   0.00042  -0.00402   2.06422
   R15        2.07099  -0.00165  -0.00416  -0.00487  -0.00903   2.06196
   R16        2.85856  -0.00034  -0.00377  -0.00053  -0.00430   2.85426
   R17        2.07114  -0.00007  -0.00376   0.00049  -0.00327   2.06787
   R18        2.06009  -0.00013  -0.00494   0.00054  -0.00440   2.05569
   R19        2.67405  -0.00465   0.00096  -0.01184  -0.01088   2.66317
   R20        1.80879   0.00097   0.00250   0.00140   0.00391   1.81269
    A1        1.92635  -0.00460  -0.00402  -0.02798  -0.03190   1.89445
    A2        1.97709   0.00427   0.00529   0.02802   0.03343   2.01051
    A3        1.90646  -0.00125  -0.00144  -0.01276  -0.01407   1.89239
    A4        1.91981  -0.00009  -0.00020  -0.00165  -0.00171   1.91810
    A5        2.00126   0.00361   0.00495   0.02114   0.02602   2.02728
    A6        1.72676  -0.00119  -0.00421  -0.00169  -0.00592   1.72083
    A7        2.09353   0.00705   0.00580   0.02978   0.03558   2.12911
    A8        1.96538   0.00569   0.00974   0.03646   0.04620   2.01158
    A9        1.86983   0.00040   0.00425   0.00599   0.01007   1.87990
   A10        1.92342  -0.00059   0.00426  -0.01829  -0.01401   1.90942
   A11        1.90880  -0.00071   0.00182  -0.00377  -0.00187   1.90693
   A12        1.85032   0.00018  -0.00013   0.00538   0.00495   1.85527
   A13        1.89286   0.00023  -0.00040   0.00632   0.00577   1.89863
   A14        1.96534   0.00026  -0.00056  -0.00172  -0.00221   1.96313
   A15        1.92256   0.00060  -0.00467   0.01172   0.00701   1.92958
   A16        1.96345   0.00035  -0.00083  -0.00092  -0.00170   1.96176
   A17        1.91886   0.00088  -0.00452   0.01358   0.00902   1.92787
   A18        1.85938  -0.00021   0.00014   0.00319   0.00304   1.86242
   A19        1.89109   0.00013  -0.00067   0.00644   0.00560   1.89669
   A20        1.92128  -0.00046   0.00388  -0.01773  -0.01384   1.90744
   A21        1.90940  -0.00073   0.00233  -0.00491  -0.00248   1.90692
   A22        1.92009  -0.00112   0.00014  -0.00610  -0.00606   1.91403
   A23        1.93273  -0.00054   0.00288  -0.01050  -0.00766   1.92508
   A24        1.87839   0.00076   0.00105   0.00350   0.00451   1.88291
   A25        1.90921  -0.00042  -0.00158  -0.00264  -0.00427   1.90493
   A26        1.89496   0.00186  -0.00298   0.02084   0.01783   1.91279
   A27        1.92795  -0.00049   0.00053  -0.00443  -0.00393   1.92402
   A28        1.90193   0.00046  -0.00636   0.00607  -0.00053   1.90140
   A29        1.91790  -0.00063  -0.00361  -0.00471  -0.00846   1.90944
   A30        1.94818   0.00045   0.00508   0.00172   0.00683   1.95502
   A31        1.89272  -0.00009  -0.00162  -0.00140  -0.00336   1.88936
   A32        1.93713  -0.00035   0.00658  -0.00250   0.00415   1.94128
   A33        1.86503   0.00012   0.00027   0.00048   0.00084   1.86587
   A34        1.88014   0.00128   0.00452   0.00883   0.01318   1.89332
   A35        1.87099  -0.00052   0.00005  -0.00354  -0.00350   1.86750
    D1       -1.01034   0.00083   0.00092   0.01389   0.01521  -0.99513
    D2        1.15107   0.00032   0.00158   0.01087   0.01241   1.16349
    D3        3.05731   0.00038  -0.00149   0.01603   0.01418   3.07148
    D4        2.36819   0.00232   0.00235   0.03194   0.03446   2.40265
    D5        0.17405   0.00019  -0.00146   0.01715   0.01564   0.18969
    D6       -1.75324  -0.00030   0.00106   0.00844   0.00937  -1.74387
    D7        1.76879  -0.00051  -0.00016   0.00155   0.00138   1.77017
    D8       -2.34941  -0.00349  -0.00171  -0.01593  -0.01753  -2.36694
    D9       -0.24721  -0.00004   0.00166   0.00656   0.00829  -0.23892
   D10       -2.23581  -0.00388  -0.00156  -0.01675  -0.01837  -2.25418
   D11        1.87506   0.00054   0.00119   0.01488   0.01619   1.89125
   D12       -0.16600  -0.00013   0.00178   0.00915   0.01101  -0.15499
   D13       -1.00195   0.00119  -0.00071   0.01052   0.00975  -0.99220
   D14        1.11067  -0.00042  -0.00074  -0.00368  -0.00440   1.10626
   D15       -3.06361  -0.00086   0.00217  -0.01315  -0.01094  -3.07455
   D16        2.68604  -0.00051  -0.00223  -0.03139  -0.03377   2.65227
   D17       -1.51786  -0.00103   0.00079  -0.03707  -0.03627  -1.55414
   D18        0.55457  -0.00059  -0.00384  -0.02219  -0.02618   0.52839
   D19       -2.78920   0.00106   0.00299   0.05099   0.05396  -2.73524
   D20        1.38476   0.00004   0.00779   0.03391   0.04159   1.42635
   D21       -0.68250   0.00056   0.00737   0.03067   0.03792  -0.64458
   D22        1.38948   0.00152  -0.00182   0.07094   0.06921   1.45869
   D23       -0.71974   0.00050   0.00298   0.05386   0.05684  -0.66290
   D24       -2.78700   0.00102   0.00255   0.05063   0.05316  -2.73384
   D25       -0.72588   0.00062   0.00259   0.05571   0.05831  -0.66757
   D26       -2.83510  -0.00039   0.00739   0.03864   0.04594  -2.78916
   D27        1.38082   0.00013   0.00696   0.03540   0.04227   1.42309
   D28        0.50137  -0.00056  -0.00388  -0.02442  -0.02847   0.47289
   D29        2.63491  -0.00053  -0.00261  -0.03388  -0.03664   2.59827
   D30       -1.57209  -0.00109   0.00014  -0.03972  -0.03958  -1.61166
   D31       -1.06101  -0.00002  -0.00892  -0.00684  -0.01561  -1.07662
   D32       -3.13263   0.00019  -0.00020  -0.00600  -0.00629  -3.13892
   D33        1.08465   0.00016  -0.00148  -0.00464  -0.00611   1.07854
   D34       -3.13880  -0.00014  -0.00804  -0.01301  -0.02094   3.12344
   D35        1.07276   0.00007   0.00068  -0.01217  -0.01163   1.06113
   D36       -0.99315   0.00004  -0.00060  -0.01081  -0.01145  -1.00460
   D37        1.05091  -0.00050  -0.00450  -0.02011  -0.02448   1.02643
   D38       -1.02071  -0.00029   0.00423  -0.01927  -0.01516  -1.03588
   D39       -3.08662  -0.00031   0.00294  -0.01791  -0.01498  -3.10161
   D40       -1.01152  -0.00018   0.00020   0.00716   0.00725  -1.00427
   D41        1.11394   0.00048  -0.00017   0.01438   0.01435   1.12829
   D42       -3.10876   0.00025   0.00151   0.01161   0.01309  -3.09568
         Item               Value     Threshold  Converged?
 Maximum Force            0.007055     0.000450     NO 
 RMS     Force            0.001722     0.000300     NO 
 Maximum Displacement     0.179567     0.001800     NO 
 RMS     Displacement     0.049495     0.001200     NO 
 Predicted change in Energy=-1.050022D-03
 GradGradGradGradGradGradGradGradGradGradGradGradGradGradGradGradGradGrad

                          Input orientation:                          
 ---------------------------------------------------------------------
 Center     Atomic      Atomic             Coordinates (Angstroms)
 Number     Number       Type             X           Y           Z
 ---------------------------------------------------------------------
      1         14           0       -0.013239    0.053490   -0.036614
      2          8           0        1.608707    0.083146   -0.006489
      3          8           0       -0.571176    0.876771    1.256029
      4          1           0       -1.315435    1.453472    1.082838
      5          8           0       -0.701652    0.641928   -1.417801
      6          6           0       -1.095413   -0.474801   -2.216975
      7          1           0       -1.942662   -0.194094   -2.837145
      8          1           0       -0.265539   -0.764239   -2.865397
      9          6           0       -1.433276   -1.602928   -1.241317
     10          1           0       -1.353072   -2.585078   -1.699946
     11          1           0       -2.446877   -1.480371   -0.851934
     12          6           0        2.341443    1.305887    0.015378
     13          1           0        2.063858    1.916265   -0.846939
     14          1           0        2.125924    1.860029    0.930295
     15          6           0        3.811591    0.966932   -0.056137
     16          1           0        4.081975    0.371658    0.821338
     17          1           0        4.395336    1.884689   -0.038298
     18          8           0       -0.501058   -1.507660   -0.165331
     19          8           0        4.141236    0.294684   -1.250083
     20          1           0        3.596630   -0.494079   -1.287370
 ---------------------------------------------------------------------
                    Distance matrix (angstroms):
                    1          2          3          4          5
     1  Si   0.000000
     2  O    1.622497   0.000000
     3  O    1.630954   2.641151   0.000000
     4  H    2.215589   3.408083   0.957341   0.000000
     5  O    1.651620   2.764380   2.687293   2.699728   0.000000
     6  C    2.490816   3.536922   3.763419   3.828239   1.428569
     7  H    3.409831   4.549912   4.447674   4.298158   2.062420
     8  H    2.955393   3.521961   4.446625   4.648557   2.064711
     9  C    2.492295   3.690705   3.623377   3.841506   2.367657
    10  H    3.394682   4.331206   4.618825   4.904609   3.304167
    11  H    2.989995   4.427993   3.676667   3.692010   2.805382
    12  C    2.667533   1.425650   3.194794   3.812350   3.428597
    13  H    2.905321   2.067328   3.527949   3.918908   3.098042
    14  H    2.962180   2.074220   2.889160   3.468647   3.872017
    15  C    3.932439   2.374077   4.575866   5.274503   4.725370
    16  H    4.196200   2.624042   4.700629   5.510966   5.288657
    17  H    4.773765   3.318415   5.230433   5.835735   5.424645
    18  O    1.640648   2.647074   2.776813   3.315032   2.495926
    19  O    4.334783   2.829307   5.369008   6.046534   4.858217
    20  H    3.859453   2.434272   5.071362   5.791306   4.447781
                    6          7          8          9         10
     6  C    0.000000
     7  H    1.086848   0.000000
     8  H    1.092207   1.771611   0.000000
     9  C    1.529290   2.188825   2.169018   0.000000
    10  H    2.187916   2.712497   2.420012   1.086918   0.000000
    11  H    2.168170   2.418637   3.053704   1.092715   1.770849
    12  C    4.468359   5.361007   4.402345   4.928387   5.633062
    13  H    4.192277   4.946387   4.084772   4.976967   5.715341
    14  H    5.072844   5.913241   5.197418   5.419951   6.227403
    15  C    5.552162   6.495646   5.245177   5.959652   6.480171
    16  H    6.062441   7.071127   5.812328   6.210599   6.681235
    17  H    6.360987   7.233610   6.060781   6.898076   7.468875
    18  O    2.372614   3.307910   2.810427   1.426833   2.059563
    19  O    5.380472   6.306464   4.811468   5.888649   6.219552
    20  H    4.783284   5.759822   4.180849   5.150885   5.389067
                   11         12         13         14         15
    11  H    0.000000
    12  C    5.607448   0.000000
    13  H    5.646582   1.092339   0.000000
    14  H    5.936760   1.091143   1.779206   0.000000
    15  C    6.766905   1.510410   2.140367   2.147590   0.000000
    16  H    6.989690   2.133497   3.040026   2.460337   1.094268
    17  H    7.668214   2.134565   2.467931   2.467592   1.087822
    18  O    2.063584   4.003563   4.332049   4.409394   4.973376
    19  O    6.834660   2.421400   2.665998   3.356461   1.409287
    20  H    6.138921   2.551965   2.890177   3.552863   1.922679
                   16         17         18         19         20
    16  H    0.000000
    17  H    1.768173   0.000000
    18  O    5.050698   5.958091   0.000000
    19  O    2.073698   2.015218   5.096668   0.000000
[...]
 01539568,-0.03319251,0.03038723,-0.05345164,-0.02479149,0.00617991,0.0
 0108926,-0.00470994,-0.02942261,0.06937688,0.00458505,-0.00334657,0.00
 070940,-0.00082088,0.00025589,0.00021508,-0.00075357,0.00007292,-0.001
 18340,-0.00012025,0.00008444,0.00034281,0.00262885,-0.01540186,-0.0180
 3165,0.12009514,-0.02567493,-0.18106013,-0.00805776,0.00289497,0.01068
 713,-0.13217119,0.03987367,0.20055124,-0.01207529,-0.03466153,-0.00372
 144,0.00323929,0.00270213,-0.00094595,-0.00085193,0.00696063,0.0019403
 5,0.00095457,-0.00004914,0.00000963,-0.00688887,-0.00552579,-0.0094377
 8,-0.08112195,0.00331133,0.01576546,0.00264205,0.02136791,-0.01796179,
 -0.00141707,-0.02059770,0.01667242,0.54342164,-0.01970399,-0.02439047,
 -0.01373828,-0.00009726,-0.00011278,0.00014311,0.00110057,-0.00089108,
 0.00022539,0.00003008,-0.00045024,-0.00024995,-0.01272054,-0.04718342,
 0.00242759,-0.01036481,-0.12163004,0.04084710,-0.00035399,0.00101994,0
 .00376491,-0.00043966,0.00248907,-0.00198178,0.00959274,0.58047362,-0.
 00837422,-0.03214192,0.00418586,0.00514298,0.00642005,-0.00086818,0.00
 020410,0.00326450,0.00013405,0.00024464,-0.00080186,-0.00001352,-0.015
 51790,-0.01233444,-0.00419418,0.02252611,0.06291800,-0.11999822,0.0029
 6108,0.00569207,-0.00635182,-0.00048865,0.01872498,-0.01276448,-0.0713
 4991,0.07436589,0.48292282,-0.00059682,0.00146369,-0.00286517,-0.00060
 391,-0.00039654,0.00024883,0.00021982,-0.00135171,-0.00044103,-0.00018
 926,-0.00010791,-0.00006520,0.00116118,-0.00096066,0.00022569,0.000859
 05,-0.00408300,0.00163361,-0.00004978,-0.00055174,0.00011349,0.0006102
 9,-0.00012788,-0.00031241,-0.06137808,0.05370085,0.02891933,0.06596130
 ,0.00192498,0.00068437,0.00096067,-0.00078150,-0.00019292,-0.00009073,
 -0.00016130,-0.00042045,-0.00059551,-0.00009894,0.00004304,0.00012320,
 -0.00138022,-0.00402737,0.00168305,0.00526695,-0.01622905,-0.01231297,
 -0.00000171,-0.00089309,0.00111392,-0.00079209,0.00114939,0.00007153,0
 .04516115,-0.25702848,-0.10110957,-0.04456808,0.27484541,-0.00030463,0
 .00458792,-0.00432369,-0.00059822,-0.00066778,0.00027524,0.00013819,-0
 .00138323,-0.00005919,-0.00006708,0.00006747,-0.00002347,0.00220018,0.
 00589254,0.00045073,-0.00253890,0.01601597,0.01252670,-0.00080246,-0.0
 0038353,-0.00071727,0.00024408,-0.00025683,0.00121770,0.02595501,-0.09
 798135,-0.09900155,-0.01965155,0.11291517,0.11137692,-0.00175228,0.007
 43532,0.00020032,-0.00138836,-0.00172494,-0.00015304,0.00042668,-0.000
 83978,-0.00061743,-0.00024416,-0.00015136,-0.00002731,0.00080187,-0.00
 102929,0.00021327,0.00120929,0.00165485,0.00027661,0.00125401,-0.00037
 515,0.00024142,0.00132148,0.00006482,-0.00044092,-0.23915313,-0.003332
 42,0.11136365,-0.00385840,0.00007757,0.00500019,0.27221409,-0.00151413
 ,0.00042611,0.00053787,-0.00015125,-0.00036264,-0.00008723,0.00032374,
 0.00019370,-0.00008526,-0.00008492,-0.00015295,-0.00008477,0.00142765,
 0.00080264,-0.00109635,-0.02171020,0.00095100,0.01502878,0.00017566,0.
 00127428,-0.00067639,-0.00064652,-0.00322581,0.00279320,-0.00164103,-0
 .05767730,0.00029720,0.02499522,0.00211232,-0.01437482,0.00778044,0.05
 254892,-0.00203589,0.00353263,-0.00047333,-0.00079706,-0.00117897,0.00
 002832,0.00026768,0.00006616,0.00001563,0.00003213,-0.00007593,-0.0000
 0370,0.00026635,0.00068407,0.00227323,0.01820490,-0.00136336,-0.013874
 66,-0.00020418,0.00001874,0.00044718,-0.00018772,0.00398046,-0.0017914
 4,0.11439246,0.00137943,-0.11037464,0.01227709,0.00113810,-0.00496936,
 -0.10920099,-0.00266911,0.12062880,-0.03815688,-0.01487014,-0.00001670
 ,-0.10965843,-0.06717377,-0.01229508,0.00368063,-0.00305322,-0.0039160
 1,0.00018963,0.00004291,-0.00046670,0.00332629,0.00112133,0.00203710,-
 0.00005644,-0.00130218,-0.00083853,0.00024735,0.00016564,0.00019304,-0
 .00016368,0.00011126,0.00002464,-0.00125661,-0.00028655,-0.00094080,0.
 00007025,0.00017937,0.00016409,0.00036814,0.00000700,0.00008259,0.4835
 3962,-0.01975437,-0.00344534,0.00479068,-0.07622586,-0.16776047,-0.022
 30645,0.00605718,-0.00457242,-0.00600974,0.00031345,0.00024375,-0.0004
 7088,0.00736623,0.00001012,0.00302941,-0.00022816,-0.00190209,-0.00135
 539,0.00034545,0.00026264,0.00034739,-0.00024641,0.00022634,0.00007558
 ,-0.00169816,-0.00025778,-0.00109539,0.00013849,0.00023575,0.00020700,
 0.00044393,0.00001930,0.00010528,-0.03966606,0.52301254,-0.00300231,0.
 00383456,-0.00059300,-0.01739181,-0.02850144,-0.07101540,0.00147050,-0
 .00275507,-0.00256023,0.00009221,-0.00011980,-0.00008234,-0.00008140,0
 .00068676,-0.00010723,0.00016538,-0.00007925,-0.00016450,0.00003296,0.
 00001379,0.00004086,-0.00002424,-0.00007255,0.00001205,0.00005888,0.00
 034150,-0.00055307,0.00009890,0.00006050,0.00008519,0.00022829,0.00003
 946,0.00010135,-0.03439002,-0.01118860,0.61708337,0.00391190,-0.002474
 49,0.00157906,-0.00827343,-0.02381955,0.01378312,-0.00062019,0.0005351
 5,0.00006353,-0.00001074,0.00000047,0.00006582,0.00004216,0.00052841,-
 0.00028660,-0.00003283,-0.00012770,-0.00012145,-0.00000354,0.00003075,
 -0.00001020,0.00000246,-0.00000571,0.00001126,0.00017751,0.00000559,0.
 00036562,-0.00003197,-0.00000416,-0.00005928,-0.00009057,-0.00001039,-
 0.00006350,-0.05006512,0.00967471,-0.00512901,0.05791521,0.00641572,-0
 .00212344,0.00075093,-0.01710638,-0.02879808,0.01602676,-0.00069328,0.
 00066271,0.00061155,0.00002793,0.00006323,0.00004881,-0.00062322,0.000
 18694,-0.00056710,-0.00009254,0.00011030,0.00013098,-0.00002238,-0.000
 00590,-0.00005657,0.00002828,-0.00004424,-0.00003455,0.00027935,-0.000
 00625,0.00047520,-0.00004435,-0.00003489,-0.00006056,-0.00012472,-0.00
 001178,-0.00008345,0.00903449,-0.13610507,0.11823060,0.00266087,0.1592
 9372,-0.00060734,0.00003113,0.00021201,0.00040425,-0.00719188,0.012422
 28,0.00025228,-0.00006580,0.00018128,0.00000485,0.00011933,0.00001742,
 0.00048119,-0.00007571,0.00006870,-0.00000028,-0.00006390,-0.00000083,
 0.00001489,0.00001605,0.00001325,-0.00002212,0.00000152,-0.00000830,-0
 .00009486,-0.00004028,-0.00004173,-0.00000106,0.00000092,0.00000555,0.
 00000359,-0.00000083,-0.00001000,-0.00455431,0.12400028,-0.22250908,0.
 00812436,-0.13365094,0.23140126,0.00393699,-0.00280818,-0.00364862,0.0
 0029627,-0.01949533,-0.01968321,-0.00008625,0.00022508,0.00033913,0.00
 016669,0.00025333,0.00006949,-0.00045900,0.00023090,0.00029381,0.00001
 516,0.00002159,0.00002332,-0.00001375,0.00000030,-0.00000581,0.0000181
 0,0.00002235,0.00004139,0.00006290,0.00006380,0.00008893,0.00001230,0.
 00000170,0.00000254,-0.00004027,-0.00001751,-0.00002779,-0.08672599,0.
 04917866,0.07744842,0.00207600,-0.00045307,-0.00253131,0.09206030,0.00
 522299,-0.00173562,-0.00378557,-0.00477245,-0.02381725,-0.02372037,0.0
 0037914,0.00059837,0.00082747,0.00009350,0.00021956,0.00019930,-0.0006
 6441,0.00014736,0.00002868,0.00004924,0.00011370,0.00009783,-0.0000369
 4,-0.00000874,-0.00001910,0.00002791,0.00000053,0.00003659,0.00019010,
 0.00005838,0.00017256,0.00000253,-0.00001445,-0.00001584,-0.00007689,-
 0.00001515,-0.00003627,0.04299105,-0.10467261,-0.09057644,-0.00653229,
 0.01127851,0.01472482,-0.04192319,0.12182769,0.00293093,-0.00199927,-0
 .00100245,-0.00564007,-0.00727974,-0.00053670,0.00028788,0.00141484,0.
 00046045,-0.00012732,0.00010312,0.00000835,-0.00039337,0.00020653,0.00
 004083,0.00003907,0.00001781,-0.00001560,-0.00002041,0.00000098,-0.000
 00847,0.00001694,0.00002048,0.00003353,0.00013582,0.00002805,0.0001221
 7,-0.00000788,-0.00000475,-0.00002056,-0.00005197,-0.00001181,-0.00001
 494,0.07438523,-0.09585177,-0.22302857,0.01046611,-0.01151936,-0.01815
 977,-0.07899178,0.11057704,0.23516663,-0.00346619,-0.00248212,-0.00203
 992,-0.03642754,-0.00525066,-0.00684056,0.00087783,0.00073619,0.000186
 73,-0.00005948,0.00008254,0.00010783,-0.00000500,0.00050013,0.00040350
 ,-0.00009097,-0.00030193,-0.00026814,0.00002373,0.00000730,0.00002540,
 -0.00001271,0.00002964,0.00006462,-0.00016056,-0.00005241,-0.00015950,
 0.00003177,0.00006205,0.00002982,0.00002955,-0.00000333,0.00001062,-0.
 17623484,0.03355549,-0.03316577,-0.00203079,0.00188659,0.00055235,-0.0
 0400421,0.00449156,-0.00198168,0.52577068,0.00232441,-0.00062017,-0.00
 190237,-0.04586840,-0.00545147,-0.01216699,-0.00063363,0.00025263,0.00
 056856,0.00006287,0.00006129,0.00001767,-0.00177055,-0.00009600,-0.000
 86704,0.00005483,0.00054522,0.00044966,-0.00005587,-0.00006891,-0.0001
 0069,0.00004503,-0.00006662,-0.00008706,0.00024011,0.00003834,0.000366
 99,-0.00006442,-0.00008283,-0.00005305,-0.00009752,-0.00001588,-0.0000
 7321,0.05720758,-0.09233116,0.02008467,0.02007238,-0.00514349,0.002883
 01,0.01153425,-0.00444974,0.00416984,0.07316566,0.60220009,0.00073404,
 -0.00047965,0.00018768,-0.01012428,-0.00458775,-0.00163259,0.00045035,
 0.00030297,-0.00040303,0.00005481,0.00011771,0.00001131,-0.00043020,-0
 .00019515,-0.00040301,-0.00006832,0.00026111,0.00033990,0.00000709,-0.
 00001573,-0.00006068,0.00002124,-0.00003632,-0.00011160,0.00010927,0.0
 0006529,0.00019541,-0.00004421,-0.00005790,-0.00000946,-0.00001359,-0.
 00000889,-0.00004581,-0.02194373,0.01522023,-0.08858731,-0.02924270,0.
 01077972,-0.00686186,0.02731466,-0.00942822,0.00458734,0.02232211,-0.0
 2016180,0.54605629,-0.00033934,0.00046622,-0.00025343,0.00368138,-0.00
 079716,0.00170413,0.00011212,-0.00018174,0.00002573,0.00000183,0.00001
 204,-0.00000627,0.00013354,-0.00012017,0.00010474,0.00002183,0.0000208
 7,0.00003114,0.00000555,-0.00000129,0.00000626,-0.00000345,0.00000514,
 -0.00000462,-0.00006374,-0.00001680,-0.00005729,0.00000154,-0.00000179
 ,0.00000989,0.00001371,0.00000034,0.00000523,-0.00366739,0.02308970,-0
 .02696655,-0.00590249,0.00170915,-0.00139760,0.00123629,-0.00044972,0.
 00046682,-0.05257776,-0.00060322,-0.00485008,0.05468604,-0.00067964,-0
 .00009955,0.00036602,0.00047678,0.00230416,-0.00134634,0.00008567,0.00
 000736,-0.00022054,-0.00000854,-0.00000367,0.00001575,0.00009011,0.000
 06497,-0.00000021,-0.00002963,-0.00005354,-0.00004389,0.00000771,0.000
 00258,0.00000436,-0.00000181,-0.00000125,-0.00000041,-0.00001961,-0.00
 000023,-0.00002775,0.00000161,0.00000818,0.00000211,0.00001700,0.00000
 214,0.00000476,-0.00153284,-0.00928120,0.01045466,0.00269631,0.0003869
 5,-0.00023481,0.00009705,-0.00019802,-0.00011731,0.00050050,-0.1471841
 6,0.12142087,-0.00678796,0.15265520,-0.00007021,0.00024406,-0.00049509
 ,0.00046169,-0.00121245,0.00084919,0.00000073,-0.00008342,0.00012403,-
 0.00000713,0.00000080,-0.00000401,0.00005216,-0.00002560,0.00013527,0.
 00004649,-0.00001349,-0.00004171,-0.00000208,-0.00000178,0.00001304,-0
 .00000436,0.00001149,0.00002162,-0.00005886,-0.00002052,-0.00006671,0.
 00000619,0.00000726,0.00000304,0.00000611,-0.00000038,0.00001165,-0.00
 031137,0.00674574,-0.00372966,-0.00046996,0.00045593,0.00105209,-0.000
 97916,0.00001579,0.00044397,-0.00748142,0.11868600,-0.19975541,-0.0010
 2245,-0.12608729,0.23259078,0.00187054,-0.00016835,-0.00083320,-0.0094
 7585,0.00034720,-0.00188763,-0.00040433,0.00029238,0.00042991,0.000011
 50,-0.00002381,0.00000378,-0.00067099,-0.00001677,-0.00029296,0.000026
 81,0.00018224,0.00013990,-0.00003398,-0.00002373,-0.00003593,0.0000208
 8,-0.00001979,-0.00001119,0.00014506,0.00002907,0.00015965,-0.00001419
 ,-0.00002624,-0.00001968,-0.00005426,-0.00000742,-0.00002481,-0.012342
 71,-0.02587996,-0.00221369,0.00111892,0.00031399,-0.00065010,0.0002237
 0,0.00026254,0.00086498,-0.15443646,-0.12790560,-0.02721165,0.00189789
 ,0.00194954,0.00008610,0.16194503,0.00020249,0.00021935,0.00016557,0.0
 0405836,0.00162304,0.00081738,-0.00003037,0.00000240,0.00000497,0.0000
 0548,-0.00001883,-0.00001647,0.00006775,-0.00001990,0.00002534,0.00000
 317,-0.00002009,-0.00002710,-0.00000521,0.00000366,0.00000416,0.000000
 14,0.00000256,0.00001189,0.00002854,0.00001365,-0.00001680,0.00000947,
 0.00000420,0.00000241,-0.00000021,0.00000298,0.00001048,0.00486188,0.0
 0820768,0.00229930,-0.00061203,0.00040445,-0.00005787,-0.00097399,0.00
 035137,-0.00037396,-0.12389090,-0.20729086,-0.02716198,-0.01298794,-0.
 01370357,-0.00189613,0.13483520,0.22720889,-0.00031865,-0.00014212,-0.
 00003134,-0.00055066,-0.00005895,0.00119301,0.00002626,-0.00000918,-0.
 00000347,-0.00000355,0.00000277,0.00001481,0.00009634,0.00005062,0.000
 04927,0.00000755,-0.00004500,-0.00004029,0.00000002,0.00000491,0.00000
 947,-0.00000314,0.00000316,0.00001236,-0.00001752,-0.00001663,-0.00001
 685,0.00000385,0.00000751,0.00000155,0.00000240,0.00000114,0.00000321,
 -0.00544290,-0.00403190,-0.00148040,0.00020315,-0.00034787,-0.00008806
 ,0.00006931,0.00029804,0.00010954,-0.01903636,-0.02049670,-0.05355334,
 0.01566272,0.01869521,0.00536370,0.02402186,0.03970792,0.06458564,-0.0
 5046154,-0.04741897,-0.00403452,-0.01675074,-0.02301772,-0.00102902,0.
 00867029,-0.00219511,-0.00018325,-0.00065296,-0.00200900,-0.00079878,0
 .01107293,0.00136663,-0.00112462,-0.01207329,0.00249198,-0.01819721,0.
 00203883,0.00171326,-0.00145147,0.00111220,0.00122461,-0.00135249,-0.1
 4628708,-0.01716003,-0.07513046,-0.00217375,-0.00481705,-0.00969011,-0
 .03106645,-0.00892551,-0.03299446,0.00396356,0.00475362,0.00263623,-0.
 00104764,-0.00137630,-0.00004150,-0.00048408,-0.00081112,-0.00052720,0
 .00024991,-0.00112198,-0.00030518,0.00011798,0.00014684,0.00007524,-0.
 00049909,0.00008287,0.00001026,0.23420801,-0.04337952,-0.24016170,0.00
 154032,-0.01185503,-0.00873892,-0.00098253,-0.00164770,-0.01107930,-0.
 00565269,-0.00181912,0.00007245,0.00084544,0.01512484,-0.01661162,0.02
 950672,0.00769474,-0.01599280,0.00613363,0.00000735,-0.00106346,0.0025
 2634,0.00042533,0.00172164,0.00031081,-0.02558290,-0.07446066,-0.02508
 856,-0.02806115,-0.00017690,-0.02452074,-0.00972845,0.00313679,-0.0054
 5521,0.00250607,0.00403422,0.00119564,-0.00038781,-0.00059810,-0.00000
 858,0.00006938,-0.00022799,-0.00016537,0.00049947,-0.00134845,-0.00033
 547,-0.00000424,0.00011352,-0.00003420,-0.00038250,0.00014003,0.000024
 23,0.09695479,0.36109354,-0.00340320,-0.00086176,-0.04432588,-0.003828
 72,-0.00390594,0.00524745,-0.00074707,-0.01771864,-0.00025921,-0.00161
 230,0.00073750,-0.00031537,-0.00478191,0.00849993,0.00314268,-0.034321
 64,0.00188485,-0.02964577,0.00153983,0.00551205,-0.00342631,0.00123532
 ,-0.00065541,0.00110574,-0.07141510,-0.00955269,-0.13324701,-0.0201610
 7,-0.00393577,-0.01683313,-0.00702208,0.00040146,0.00803868,0.00047747
 ,0.00012803,0.00235076,-0.00061178,-0.00073596,-0.00008229,0.00044599,
 0.00036630,0.00002264,0.00041181,-0.00012502,-0.00038830,0.00007696,-0
 .00000780,0.00015297,-0.00006373,-0.00001872,0.00004077,0.14410763,0.0
 1985938,0.20820618,0.00500059,0.00251818,0.00088522,-0.00019398,0.0006
 3992,0.00188588,-0.00157775,-0.00023113,0.00051084,0.00004979,-0.00011
 609,-0.00003431,-0.00089828,-0.00053766,-0.00074526,0.00015468,0.00051
 533,0.00036079,-0.00008153,-0.00003899,-0.00005963,0.00004896,-0.00003
 870,-0.00004009,0.00035748,0.00011265,0.00032371,-0.00003652,-0.000086
 90,-0.00005716,-0.00009859,-0.00000550,-0.00002438,-0.01855510,0.02381
 926,0.03764033,0.00309442,-0.00163688,0.00017391,-0.00790232,0.0022059
 9,-0.00149739,-0.10735940,-0.00095788,0.03564515,0.00093794,0.00310011
 ,0.00866126,0.01113186,-0.00828674,-0.01686489,-0.00078420,-0.00093230
 ,-0.00041877,0.37062414,-0.00225703,-0.00177244,-0.00071832,-0.0004971
 5,0.00513108,0.00236470,0.00061811,0.00059129,0.00016188,-0.00005712,0
 .00000491,0.00007222,0.00048147,0.00048671,0.00046903,-0.00008890,-0.0
 0040539,-0.00031251,0.00002274,0.00002959,0.00004397,-0.00002055,0.000
 02642,0.00007834,-0.00009669,-0.00006476,-0.00016925,0.00005148,0.0000
 7517,0.00003676,0.00002478,0.00000525,0.00002345,0.01085725,-0.0152547
 1,-0.02380392,-0.00259999,0.00093258,-0.00038234,0.00480260,0.00032018
 ,0.00058536,0.03115261,-0.11932417,-0.07830955,-0.00321167,0.01355284,
 0.00222954,0.01391363,-0.01664787,-0.02999311,0.00033276,0.00084859,0.
 00028870,0.20703669,0.40551989,-0.00195350,-0.00097597,-0.00188317,-0.
 00049453,0.00267153,0.00341065,0.00040377,0.00039287,0.00055825,-0.000
 07255,0.00002160,-0.00000166,0.00034990,0.00027140,0.00082578,0.000095
 23,-0.00033724,-0.00042337,-0.00000181,0.00001969,0.00007601,-0.000022
 19,0.00008232,0.00014989,-0.00022175,-0.00005194,-0.00031579,0.0000552
 0,0.00007296,0.00002895,0.00002637,-0.00000406,0.00006146,0.00750476,-
 0.01094862,-0.00689977,0.00136064,-0.00073461,0.00250426,0.00004565,0.
 00003257,0.00194102,0.06934167,-0.05934897,-0.18557622,0.01742322,-0.0
 2275705,-0.03643811,0.00494910,-0.01160880,-0.01199142,0.00044854,0.00
 050753,0.00063127,-0.02346086,0.20445301,0.28614805,-0.00413191,-0.000
 50018,0.00067647,0.00266459,-0.00186323,-0.00162330,0.00096509,-0.0004
 0842,-0.00079972,-0.00003069,0.00002495,-0.00003113,0.00085242,0.00017
 912,0.00042147,-0.00011150,-0.00029663,-0.00015924,0.00008288,0.000022
 12,0.00003029,-0.00004150,0.00001912,-0.00003801,-0.00034619,-0.000106
 92,-0.00028108,0.00000517,0.00004620,0.00004508,0.00010764,0.00000764,
 0.00002171,0.00149773,0.00496279,0.00249268,-0.00022927,-0.00018324,-0
 .00011120,-0.00038884,-0.00064956,-0.00035471,0.00988245,0.01437195,0.
 00757522,-0.00029348,-0.00010919,0.00101103,-0.00046034,0.00263205,0.0
 0213394,0.00084712,0.00049876,0.00009235,-0.25391221,-0.26046502,-0.07
 577686,0.24304084,0.00252943,0.00148890,0.00005937,-0.00171731,-0.0003
 0062,0.00137068,-0.00071811,-0.00006447,0.00032025,0.00000341,0.000007
 95,0.00001508,-0.00052343,-0.00039581,-0.00026653,0.00009306,0.0003192
 0,0.00018810,-0.00002834,-0.00003467,-0.00002918,0.00002395,0.00000726
 ,-0.00003268,0.00003857,0.00006048,0.00008810,-0.00004592,-0.00005742,
 -0.00002963,-0.00001797,-0.00001392,-0.00000804,-0.00120108,-0.0006695
 0,-0.00014435,0.00036948,-0.00044814,-0.00000411,-0.00082972,0.0002239
 1,0.00019929,-0.01468837,-0.01962365,-0.00738950,-0.00013978,0.0014273
 0,0.00097865,0.00232839,-0.00048314,-0.00365407,-0.00021461,-0.0007008
 9,-0.00016049,-0.22707935,-0.27405515,-0.10175824,0.24181770,0.2933123
 6,0.00186024,0.00037675,0.00081258,-0.00153904,0.00138442,-0.00079605,
 -0.00042717,0.00006322,0.00006941,0.00001568,-0.00002207,0.00004901,-0
 .00036028,-0.00014856,-0.00056234,-0.00011215,0.00022399,0.00030059,0.
 00000586,-0.00001962,-0.00006650,0.00001405,-0.00004813,-0.00010754,0.
 00018566,0.00004517,0.00024742,-0.00003261,-0.00004760,-0.00001390,-0.
 00003489,0.00000079,-0.00005164,0.00024722,-0.00139088,0.00163698,-0.0
 0002821,0.00028051,-0.00011617,-0.00031498,0.00020481,-0.00014942,-0.0
 2248311,-0.03184352,-0.01398931,-0.00095855,-0.00012036,-0.00023065,0.
 00258926,-0.00187159,-0.00417817,-0.00041761,-0.00020668,-0.00041588,-
 0.04288436,-0.07711795,-0.05280607,0.06467500,0.11025730,0.07036764\\-
 0.00002300,0.00002344,0.00001008,0.00002248,0.00000873,-0.00000732,0.0
 0001265,-0.00000093,-0.00000375,-0.00000553,0.00000051,-0.00000261,-0.
 00000132,-0.00000876,0.00001516,0.00000514,0.00000814,-0.00000932,-0.0
 0000029,-0.00000051,0.00000034,-0.00000088,-0.00000055,0.00000076,0.00
 001080,-0.00000268,0.00000610,-0.00000153,0.00000038,-0.00000163,-0.00
 000164,0.00000040,-0.00000155,-0.00001757,-0.00003014,-0.00000984,0.00
 000395,0.00000534,0.00000049,0.00000311,0.00000349,0.00000091,-0.00000
 297,0.00001712,0.00002588,0.00000087,-0.00000257,-0.00000464,0.0000009
 8,-0.00000161,-0.00000149,-0.00000879,-0.00001009,-0.00000065,0.000004
 59,-0.00000705,-0.00001656,-0.00000106,-0.00000265,-0.00000037\\\@


 THE ... SCIENTISTS WERE WRONG ... THE MOST PERSISTENT PRINCIPLES 
 OF THE UNIVERSE WERE ACCIDENT AND ERROR.

                          -- FRANK HERBERT IN DUNE
 Job cpu time:       0 days  4 hours 41 minutes 46.3 seconds.
 Elapsed time:       0 days  0 hours 20 minutes  3.7 seconds.
 File lengths (MBytes):  RWF=    317 Int=      0 D2E=      0 Chk=     18 Scr=      1
 Normal termination of Gaussian 16 at Wed Jan 17 04:03:20 2024.
