 Entering Gaussian System, Link 0=/opt/software/gaussian/g16.c01/g16
 Initial command:
 /opt/software/gaussian/g16.c01/l1.exe "/scratch/arhender/18743511/Gau-6241.inp" -scrdir="/scratch/arhender/18743511/"
 Entering Link 1 = /opt/software/gaussian/g16.c01/l1.exe PID=      6242.
  
 Copyright (c) 1988-2019, Gaussian, Inc.  All Rights Reserved.
  
 This is part of the Gaussian(R) 16 program.  It is based on
 the Gaussian(R) 09 system (copyright 2009, Gaussian, Inc.),
 the Gaussian(R) 03 system (copyright 2003, Gaussian, Inc.),
 the Gaussian(R) 98 system (copyright 1998, Gaussian, Inc.),
 the Gaussian(R) 94 system (copyright 1995, Gaussian, Inc.),
 the Gaussian 92(TM) system (copyright 1992, Gaussian, Inc.),
 the Gaussian 90(TM) system (copyright 1990, Gaussian, Inc.),
 the Gaussian 88(TM) system (copyright 1988, Gaussian, Inc.),
 the Gaussian 86(TM) system (copyright 1986, Carnegie Mellon
 University), and the Gaussian 82(TM) system (copyright 1983,
 Carnegie Mellon University). Gaussian is a federally registered
 trademark of Gaussian, Inc.
  
 This software contains proprietary and confidential information,
 including trade secrets, belonging to Gaussian, Inc.
  
 This software is provided under written license and may be
 used, copied, transmitted, or stored only in accord with that
 written license.
  
 The following legend is applicable only to US Government
 contracts under FAR:
  
                    RESTRICTED RIGHTS LEGEND
  
 Use, reproduction and disclosure by the US Government is
 subject to restrictions as set forth in subparagraphs (a)
 and (c) of the Commercial Computer Software - Restricted
 Rights clause in FAR 52.227-19.
  
 Gaussian, Inc.
 340 Quinnipiac St., Bldg. 40, Wallingford CT 06492
  
  
 ---------------------------------------------------------------
 Warning -- This program may not be used in any manner that
 competes with the business of Gaussian, Inc. or will provide
 assistance to any competitor of Gaussian, Inc.  The licensee
 of this program is prohibited from giving any competitor of
 Gaussian, Inc. access to this program.  By using this program,
 the user acknowledges that Gaussian, Inc. is engaged in the
 business of creating and licensing software in the field of
 computational chemistry and represents and warrants to the
 licensee that it is not a competitor of Gaussian, Inc. and that
 it will not use this program in any manner prohibited above.
 ---------------------------------------------------------------
  

 Cite this work as:
 Gaussian 16, Revision C.01,
 M. J. Frisch, G. W. Trucks, H. B. Schlegel, G. E. Scuseria, 
 M. A. Robb, J. R. Cheeseman, G. Scalmani, V. Barone, 
 G. A. Petersson, H. Nakatsuji, X. Li, M. Caricato, A. V. Marenich, 
 J. Bloino, B. G. Janesko, R. Gomperts, B. Mennucci, H. P. Hratchian, 
 J. V. Ortiz, A. F. Izmaylov, J. L. Sonnenberg, D. Williams-Young, 
 F. Ding, F. Lipparini, F. Egidi, J. Goings, B. Peng, A. Petrone, 
 T. Henderson, D. Ranasinghe, V. G. Zakrzewski, J. Gao, N. Rega, 
 G. Zheng, W. Liang, M. Hada, M. Ehara, K. Toyota, R. Fukuda, 
 J. Hasegawa, M. Ishida, T. Nakajima, Y. Honda, O. Kitao, H. Nakai, 
 T. Vreven, K. Throssell, J. A. Montgomery, Jr., J. E. Peralta, 
 F. Ogliaro, M. J. Bearpark, J. J. Heyd, E. N. Brothers, K. N. Kudin, 
 V. N. Staroverov, T. A. Keith, R. Kobayashi, J. Normand, 
 K. Raghavachari, A. P. Rendell, J. C. Burant, S. S. Iyengar, 
 J. Tomasi, M. Cossi, J. M. Millam, M. Klene, C. Adamo, R. Cammi, 
 J. W. Ochterski, R. L. Martin, K. Morokuma, O. Farkas, 
 J. B. Foresman, and D. J. Fox, Gaussian, Inc., Wallingford CT, 2019.
 
 ******************************************
 Gaussian 16:  ES64L-G16RevC.01  3-Jul-2019
                10-Apr-2024 
 ******************************************
 %chk=Opt_QbiLmL_zwitterion.chk
 %mem=1600MB
 %nprocs=4
 Will use up to    4 processors via shared memory.
 ---------------------------------------------
 # opt freq wb97xd/def2tzvpp geom=connectivity
 ---------------------------------------------
 1/18=20,19=15,26=3,38=1,57=2/1,3;
 2/9=110,12=2,17=6,18=5,40=1/2;
 3/5=44,7=202,11=2,25=1,30=1,71=1,74=-58/1,2,3;
 4//1;
 5/5=2,38=5/2;
 6/7=2,8=2,9=2,10=2,28=1/1;
 7//1,2,3,16;
 1/18=20,19=15,26=3/3(2);
 2/9=110/2;
 99//99;
 2/9=110/2;
 3/5=44,7=202,11=2,25=1,30=1,71=1,74=-58/1,2,3;
 4/5=5,16=3,69=1/1;
 5/5=2,38=5/2;
 7//1,2,3,16;
 1/18=20,19=15,26=3/3(-5);
 2/9=110/2;
 6/7=2,8=2,9=2,10=2,19=2,28=1/1;
 99/9=1/99;
 ----------------------------------------------------------------------
 irc for proton transfer with potential SN1 like transition state in L 
 attack on QbiL
 ----------------------------------------------------------------------
 Symbolic Z-matrix:
 Charge =  0 Multiplicity = 1
 Si                    0.30147   0.16605  -0.27943 
 O                     1.49685  -0.40864  -1.23527 
 O                    -0.34218   1.55491  -0.42427 
 O                     0.7118   -0.58715   1.11892 
 C                    -2.13146  -1.24782   0.29316 
 H                    -1.58945  -1.78218   1.06694 
 H                    -2.86362  -1.8989   -0.1801 
 C                    -2.75513   0.05929   0.78373 
 H                    -2.10233   0.52807   1.52409 
 H                    -3.70888  -0.16503   1.26352 
 O                    -1.15746  -0.92963  -0.75098 
 H                    -1.66438  -0.36828  -1.36476 
 O                    -2.97206   0.9145   -0.30834 
 H                    -2.15065   1.44278  -0.40062 
 C                     2.03551  -1.10382   0.98185 
 H                     2.12823  -2.01156   1.57683 
 H                     2.74003  -0.35415   1.34557 
 C                     2.25133  -1.37899  -0.51522 
 H                     3.3012   -1.29044  -0.79167 
 H                     1.89857  -2.37805  -0.78635 
 

 GradGradGradGradGradGradGradGradGradGradGradGradGradGradGradGradGradGrad
 Berny optimization.
 Initialization pass.
                           ----------------------------
                           !    Initial Parameters    !
                           ! (Angstroms and Degrees)  !
 --------------------------                            --------------------------
 ! Name  Definition              Value          Derivative Info.                !
 --------------------------------------------------------------------------------
 ! R1    R(1,2)                  1.6349         estimate D2E/DX2                !
 ! R2    R(1,3)                  1.5376         estimate D2E/DX2                !
 ! R3    R(1,4)                  1.6404         estimate D2E/DX2                !
 ! R4    R(1,11)                 1.8845         estimate D2E/DX2                !
 ! R5    R(2,18)                 1.4245         estimate D2E/DX2                !
 ! R6    R(4,15)                 1.4276         estimate D2E/DX2                !
 ! R7    R(5,6)                  1.0854         estimate D2E/DX2                !
 ! R8    R(5,7)                  1.0881         estimate D2E/DX2                !
 ! R9    R(5,8)                  1.5291         estimate D2E/DX2                !
 ! R10   R(5,11)                 1.4629         estimate D2E/DX2                !
 ! R11   R(8,9)                  1.0927         estimate D2E/DX2                !
 ! R12   R(8,10)                 1.0909         estimate D2E/DX2                !
 ! R13   R(8,13)                 1.4039         estimate D2E/DX2                !
 ! R14   R(11,12)                0.9741         estimate D2E/DX2                !
 ! R15   R(13,14)                0.981          estimate D2E/DX2                !
 ! R16   R(15,16)                1.0893         estimate D2E/DX2                !
 ! R17   R(15,17)                1.0912         estimate D2E/DX2                !
 ! R18   R(15,18)                1.5374         estimate D2E/DX2                !
 ! R19   R(18,19)                1.0893         estimate D2E/DX2                !
 ! R20   R(18,20)                1.0936         estimate D2E/DX2                !
 ! A1    A(2,1,3)              124.647          estimate D2E/DX2                !
 ! A2    A(2,1,4)               98.8635         estimate D2E/DX2                !
 ! A3    A(2,1,11)             102.4379         estimate D2E/DX2                !
 ! A4    A(3,1,4)              126.8508         estimate D2E/DX2                !
 ! A5    A(3,1,11)             100.2257         estimate D2E/DX2                !
 ! A6    A(4,1,11)              98.0476         estimate D2E/DX2                !
 ! A7    A(1,2,18)             109.3403         estimate D2E/DX2                !
 ! A8    A(1,4,15)             108.4376         estimate D2E/DX2                !
 ! A9    A(6,5,7)              110.5794         estimate D2E/DX2                !
 ! A10   A(6,5,8)              113.3163         estimate D2E/DX2                !
 ! A11   A(6,5,11)             106.4657         estimate D2E/DX2                !
 ! A12   A(7,5,8)              112.1224         estimate D2E/DX2                !
 ! A13   A(7,5,11)             105.5285         estimate D2E/DX2                !
 ! A14   A(8,5,11)             108.3371         estimate D2E/DX2                !
 ! A15   A(5,8,9)              109.903          estimate D2E/DX2                !
 ! A16   A(5,8,10)             108.778          estimate D2E/DX2                !
 ! A17   A(5,8,13)             109.5228         estimate D2E/DX2                !
 ! A18   A(9,8,10)             108.2106         estimate D2E/DX2                !
 ! A19   A(9,8,13)             110.9783         estimate D2E/DX2                !
 ! A20   A(10,8,13)            109.4063         estimate D2E/DX2                !
 ! A21   A(1,11,5)             117.6004         estimate D2E/DX2                !
 ! A22   A(1,11,12)            103.0324         estimate D2E/DX2                !
 ! A23   A(5,11,12)            103.2143         estimate D2E/DX2                !
 ! A24   A(8,13,14)            105.7733         estimate D2E/DX2                !
 ! A25   A(4,15,16)            109.1528         estimate D2E/DX2                !
 ! A26   A(4,15,17)            108.544          estimate D2E/DX2                !
 ! A27   A(4,15,18)            106.7651         estimate D2E/DX2                !
 ! A28   A(16,15,17)           109.6026         estimate D2E/DX2                !
 ! A29   A(16,15,18)           111.7628         estimate D2E/DX2                !
 ! A30   A(17,15,18)           110.9115         estimate D2E/DX2                !
 ! A31   A(2,18,15)            107.2137         estimate D2E/DX2                !
 ! A32   A(2,18,19)            109.0756         estimate D2E/DX2                !
 ! A33   A(2,18,20)            109.0323         estimate D2E/DX2                !
 ! A34   A(15,18,19)           111.5864         estimate D2E/DX2                !
 ! A35   A(15,18,20)           111.0785         estimate D2E/DX2                !
 ! A36   A(19,18,20)           108.7981         estimate D2E/DX2                !
 ! D1    D(3,1,2,18)           153.7714         estimate D2E/DX2                !
 ! D2    D(4,1,2,18)             6.0367         estimate D2E/DX2                !
 ! D3    D(11,1,2,18)          -94.3032         estimate D2E/DX2                !
 ! D4    D(2,1,4,15)            13.8548         estimate D2E/DX2                !
 ! D5    D(3,1,4,15)          -132.8583         estimate D2E/DX2                !
 ! D6    D(11,1,4,15)          117.8713         estimate D2E/DX2                !
 ! D7    D(2,1,11,5)           147.2517         estimate D2E/DX2                !
 ! D8    D(2,1,11,12)         -100.0563         estimate D2E/DX2                !
 ! D9    D(3,1,11,5)           -83.5973         estimate D2E/DX2                !
 ! D10   D(3,1,11,12)           29.0946         estimate D2E/DX2                !
 ! D11   D(4,1,11,5)            46.2676         estimate D2E/DX2                !
 ! D12   D(4,1,11,12)          158.9596         estimate D2E/DX2                !
 ! D13   D(1,2,18,15)          -22.4663         estimate D2E/DX2                !
 ! D14   D(1,2,18,19)         -143.4417         estimate D2E/DX2                !
 ! D15   D(1,2,18,20)           97.8754         estimate D2E/DX2                !
 ! D16   D(1,4,15,16)         -148.6996         estimate D2E/DX2                !
 ! D17   D(1,4,15,17)           91.8869         estimate D2E/DX2                !
 ! D18   D(1,4,15,18)          -27.7327         estimate D2E/DX2                !
 ! D19   D(6,5,8,9)             35.2805         estimate D2E/DX2                !
 ! D20   D(6,5,8,10)           -83.0233         estimate D2E/DX2                !
 ! D21   D(6,5,8,13)           157.4452         estimate D2E/DX2                !
 ! D22   D(7,5,8,9)            161.3234         estimate D2E/DX2                !
 ! D23   D(7,5,8,10)            43.0197         estimate D2E/DX2                !
 ! D24   D(7,5,8,13)           -76.5119         estimate D2E/DX2                !
 ! D25   D(11,5,8,9)           -82.6247         estimate D2E/DX2                !
 ! D26   D(11,5,8,10)          159.0716         estimate D2E/DX2                !
 ! D27   D(11,5,8,13)           39.54           estimate D2E/DX2                !
 ! D28   D(6,5,11,1)           -61.1508         estimate D2E/DX2                !
 ! D29   D(6,5,11,12)         -173.7411         estimate D2E/DX2                !
 ! D30   D(7,5,11,1)          -178.7026         estimate D2E/DX2                !
 ! D31   D(7,5,11,12)           68.7071         estimate D2E/DX2                !
 ! D32   D(8,5,11,1)            61.0421         estimate D2E/DX2                !
 ! D33   D(8,5,11,12)          -51.5482         estimate D2E/DX2                !
 ! D34   D(5,8,13,14)          -89.8608         estimate D2E/DX2                !
 ! D35   D(9,8,13,14)           31.6586         estimate D2E/DX2                !
 ! D36   D(10,8,13,14)         150.9945         estimate D2E/DX2                !
 ! D37   D(4,15,18,2)           32.1372         estimate D2E/DX2                !
 ! D38   D(4,15,18,19)         151.5123         estimate D2E/DX2                !
 ! D39   D(4,15,18,20)         -86.8942         estimate D2E/DX2                !
 ! D40   D(16,15,18,2)         151.4262         estimate D2E/DX2                !
 ! D41   D(16,15,18,19)        -89.1986         estimate D2E/DX2                !
 ! D42   D(16,15,18,20)         32.3949         estimate D2E/DX2                !
 ! D43   D(17,15,18,2)         -85.9411         estimate D2E/DX2                !
 ! D44   D(17,15,18,19)         33.4341         estimate D2E/DX2                !
 ! D45   D(17,15,18,20)        155.0276         estimate D2E/DX2                !
 --------------------------------------------------------------------------------
 Trust Radius=3.00D-01 FncErr=1.00D-07 GrdErr=1.00D-06 EigMax=2.50D+02 EigMin=1.00D-04
 Number of steps in this run=    111 maximum allowed number of steps=    120.
 GradGradGradGradGradGradGradGradGradGradGradGradGradGradGradGradGradGrad

                          Input orientation:                          
 ---------------------------------------------------------------------
 Center     Atomic      Atomic             Coordinates (Angstroms)
 Number     Number       Type             X           Y           Z
 ---------------------------------------------------------------------
      1         14           0        0.301468    0.166046   -0.279434
      2          8           0        1.496845   -0.408644   -1.235269
      3          8           0       -0.342184    1.554909   -0.424274
      4          8           0        0.711804   -0.587149    1.118915
      5          6           0       -2.131456   -1.247820    0.293157
      6          1           0       -1.589454   -1.782179    1.066939
      7          1           0       -2.863623   -1.898898   -0.180101
      8          6           0       -2.755128    0.059293    0.783728
      9          1           0       -2.102331    0.528073    1.524093
     10          1           0       -3.708879   -0.165027    1.263518
     11          8           0       -1.157457   -0.929626   -0.750982
     12          1           0       -1.664384   -0.368275   -1.364763
     13          8           0       -2.972061    0.914504   -0.308341
     14          1           0       -2.150648    1.442784   -0.400623
     15          6           0        2.035506   -1.103816    0.981853
     16          1           0        2.128231   -2.011563    1.576826
     17          1           0        2.740029   -0.354151    1.345574
     18          6           0        2.251331   -1.378994   -0.515216
     19          1           0        3.301202   -1.290439   -0.791673
     20          1           0        1.898569   -2.378048   -0.786351
 ---------------------------------------------------------------------
                    Distance matrix (angstroms):
                    1          2          3          4          5
     1  Si   0.000000
     2  O    1.634875   0.000000
     3  O    1.537598   2.809854   0.000000
     4  O    1.640445   2.488039   2.842663   0.000000
     5  C    2.871584   4.025527   3.401689   3.033561   0.000000
     6  H    3.030493   4.088032   3.862066   2.593566   1.085377
     7  H    3.780431   4.727358   4.283230   4.023904   1.088092
     8  C    3.237976   4.730178   3.085196   3.542577   1.529108
     9  H    3.026883   4.630938   2.819334   3.054054   2.160983
    10  H    4.309663   5.779520   4.140224   4.443145   2.145298
    11  O    1.884494   2.747958   2.635208   2.666072   1.462924
    12  H    2.308249   3.164138   2.516221   3.444246   1.934025
    13  O    3.358127   4.751951   2.709209   4.226450   2.396677
    14  H    2.767240   4.174760   1.812091   3.824037   2.778678
    15  C    2.492044   2.385173   3.833982   1.427557   4.225945
    16  H    3.394812   3.297859   4.777769   2.060316   4.513983
    17  H    2.976212   2.865175   4.034465   2.054108   5.063358
    18  C    2.498941   1.424537   3.916935   2.380661   4.458643
    19  H    3.373743   2.056707   4.637375   3.293926   5.540076
    20  H    3.046327   2.059481   4.540950   2.871545   4.322482
                    6          7          8          9         10
     6  H    0.000000
     7  H    1.786684   0.000000
     8  C    2.197731   2.185234   0.000000
     9  H    2.410248   3.061704   1.092721   0.000000
    10  H    2.673160   2.409316   1.090944   1.768978   0.000000
    11  O    2.053851   2.043623   2.426077   2.862453   3.339547
    12  H    2.813879   2.276929   2.447151   3.056260   3.336035
    13  O    3.327927   2.818410   1.403945   2.064842   2.044267
    14  H    3.587348   3.424004   1.918888   2.131563   2.789714
    15  C    3.688869   5.097427   4.933787   4.480935   5.827402
    16  H    3.759492   5.293212   5.363268   4.934591   6.130229
    17  H    4.567420   6.009563   5.539256   4.925306   6.452202
    18  C    4.173416   5.152219   5.368478   5.172046   6.337327
    19  H    5.254975   6.224894   6.401781   6.153692   7.391319
    20  H    3.994502   4.824479   5.482944   5.458103   6.367331
                   11         12         13         14         15
    11  O    0.000000
    12  H    0.974072   0.000000
    13  O    2.624792   2.114608   0.000000
    14  H    2.595671   2.108543   0.980977   0.000000
    15  C    3.637042   4.442613   5.551031   5.091198   0.000000
    16  H    4.169535   5.073191   6.174844   5.843939   1.089310
    17  H    4.462860   5.171555   6.080534   5.495171   1.091166
    18  C    3.446354   4.132325   5.708481   5.230008   1.537374
    19  H    4.473419   5.082899   6.667024   6.111145   2.186826
    20  H    3.382081   4.131390   5.898511   5.580654   2.183796
                   16         17         18         19         20
    16  H    0.000000
    17  H    1.781794   0.000000
    18  C    2.189049   2.179832   0.000000
    19  H    2.739647   2.399870   1.089266   0.000000
    20  H    2.402428   3.057665   1.093647   1.774909   0.000000
 Stoichiometry    C4H10O5Si
 Framework group  C1[X(C4H10O5Si)]
 Deg. of freedom    54
 Full point group                 C1      NOp   1
 Largest Abelian subgroup         C1      NOp   1
 Largest concise Abelian subgroup C1      NOp   1
                         Standard orientation:                         
 ---------------------------------------------------------------------
 Center     Atomic      Atomic             Coordinates (Angstroms)
 Number     Number       Type             X           Y           Z
 ---------------------------------------------------------------------
      1         14           0       -0.430583    0.584820   -0.113723
      2          8           0       -1.755293    0.855378    0.805382
      3          8           0        0.525613    1.680540   -0.613017
      4          8           0       -0.972258   -0.710007   -0.962883
      5          6           0        1.602992   -1.344455    0.509547
      6          1           0        0.969350   -2.097807    0.052378
      7          1           0        2.142659   -1.761746    1.357234
      8          6           0        2.537522   -0.654904   -0.485111
      9          1           0        2.038099   -0.546322   -1.450940
     10          1           0        3.421540   -1.278325   -0.626594
     11          8           0        0.706510   -0.335654    1.074159
     12          1           0        1.317062    0.360137    1.377339
     13          8           0        2.924709    0.594934    0.023858
     14          1           0        2.253222    1.233557   -0.297981
     15          6           0       -2.384873   -0.809397   -0.782447
     16          1           0       -2.677972   -1.857592   -0.826896
     17          1           0       -2.876899   -0.257351   -1.584818
     18          6           0       -2.701949   -0.186438    0.586824
     19          1           0       -3.706435    0.234073    0.612850
     20          1           0       -2.608870   -0.926466    1.386674
 ---------------------------------------------------------------------
 Rotational constants (GHZ):           2.3858827           0.8062271           0.7432972
 Standard basis: def2TZVPP (5D, 7F)
 There are   522 symmetry adapted cartesian basis functions of A   symmetry.
 There are   461 symmetry adapted basis functions of A   symmetry.
   461 basis functions,   698 primitive gaussians,   522 cartesian basis functions
    44 alpha electrons       44 beta electrons
       nuclear repulsion energy       731.4201673182 Hartrees.
 NAtoms=   20 NActive=   20 NUniq=   20 SFac= 1.00D+00 NAtFMM=   60 NAOKFM=F Big=F
 Integral buffers will be    131072 words long.
 Raffenetti 2 integral format.
 Two-electron integral symmetry is turned on.
 Nuclear repulsion after empirical dispersion term =      731.4088442080 Hartrees.
 One-electron integrals computed using PRISM.
   1 Symmetry operations used in ECPInt.
 ECPInt:  NShTT=   15051 NPrTT=   41591 LenC2=   14305 LenP2D=   30959.
 LDataN:  DoStor=T MaxTD1= 6 Len=  172
 NBasis=   461 RedAO= T EigKep=  2.09D-04  NBF=   461
 NBsUse=   461 1.00D-06 EigRej= -1.00D+00 NBFU=   461
 ExpMin= 7.01D-02 ExpMax= 4.48D+04 ExpMxC= 1.53D+03 IAcc=3 IRadAn=         5 AccDes= 0.00D+00
 Harris functional with IExCor= 4639 and IRadAn=       5 diagonalized for initial guess.
 HarFok:  IExCor= 4639 AccDes= 0.00D+00 IRadAn=         5 IDoV= 1 UseB2=F ITyADJ=14
 ICtDFT=  3500011 ScaDFX=  1.000000  1.000000  1.000000  1.000000
 FoFCou: FMM=F IPFlag=           0 FMFlag=      100000 FMFlg1=           0
         NFxFlg=           0 DoJE=T BraDBF=F KetDBF=T FulRan=T
         wScrn=  0.000000 ICntrl=       500 IOpCl=  0 I1Cent=   200000004 NGrid=           0
         NMat0=    1 NMatS0=      1 NMatT0=    0 NMatD0=    1 NMtDS0=    0 NMtDT0=    0
 Petite list used in FoFCou.
 Requested convergence on RMS density matrix=1.00D-08 within 128 cycles.
 Requested convergence on MAX density matrix=1.00D-06.
 Requested convergence on             energy=1.00D-06.
 No special actions if energy rises.
 Integral accuracy reduced to 1.0D-05 until final iterations.
 Initial convergence to 1.0D-05 achieved.  Increase integral accuracy.
 SCF Done:  E(RwB97XD) =  -824.238535066     A.U. after   14 cycles
            NFock= 14  Conv=0.48D-08     -V/T= 2.0036

 **********************************************************************

            Population analysis using the SCF Density.

 **********************************************************************

 Orbital symmetries:
       Occupied  (A) (A) (A) (A) (A) (A) (A) (A) (A) (A) (A) (A)
                 (A) (A) (A) (A) (A) (A) (A) (A) (A) (A) (A) (A)
                 (A) (A) (A) (A) (A) (A) (A) (A) (A) (A) (A) (A)
                 (A) (A) (A) (A) (A) (A) (A) (A)
       Virtual   (A) (A) (A) (A) (A) (A) (A) (A) (A) (A) (A) (A)
                 (A) (A) (A) (A) (A) (A) (A) (A) (A) (A) (A) (A)
                 (A) (A) (A) (A) (A) (A) (A) (A) (A) (A) (A) (A)
                 (A) (A) (A) (A) (A) (A) (A) (A) (A) (A) (A) (A)
                 (A) (A) (A) (A) (A) (A) (A) (A) (A) (A) (A) (A)
                 (A) (A) (A) (A) (A) (A) (A) (A) (A) (A) (A) (A)
                 (A) (A) (A) (A) (A) (A) (A) (A) (A) (A) (A) (A)
                 (A) (A) (A) (A) (A) (A) (A) (A) (A) (A) (A) (A)
                 (A) (A) (A) (A) (A) (A) (A) (A) (A) (A) (A) (A)
                 (A) (A) (A) (A) (A) (A) (A) (A) (A) (A) (A) (A)
                 (A) (A) (A) (A) (A) (A) (A) (A) (A) (A) (A) (A)
                 (A) (A) (A) (A) (A) (A) (A) (A) (A) (A) (A) (A)
                 (A) (A) (A) (A) (A) (A) (A) (A) (A) (A) (A) (A)
                 (A) (A) (A) (A) (A) (A) (A) (A) (A) (A) (A) (A)
                 (A) (A) (A) (A) (A) (A) (A) (A) (A) (A) (A) (A)
                 (A) (A) (A) (A) (A) (A) (A) (A) (A) (A) (A) (A)
                 (A) (A) (A) (A) (A) (A) (A) (A) (A) (A) (A) (A)
                 (A) (A) (A) (A) (A) (A) (A) (A) (A) (A) (A) (A)
                 (A) (A) (A) (A) (A) (A) (A) (A) (A) (A) (A) (A)
                 (A) (A) (A) (A) (A) (A) (A) (A) (A) (A) (A) (A)
                 (A) (A) (A) (A) (A) (A) (A) (A) (A) (A) (A) (A)
                 (A) (A) (A) (A) (A) (A) (A) (A) (A) (A) (A) (A)
                 (A) (A) (A) (A) (A) (A) (A) (A) (A) (A) (A) (A)
                 (A) (A) (A) (A) (A) (A) (A) (A) (A) (A) (A) (A)
                 (A) (A) (A) (A) (A) (A) (A) (A) (A) (A) (A) (A)
                 (A) (A) (A) (A) (A) (A) (A) (A) (A) (A) (A) (A)
                 (A) (A) (A) (A) (A) (A) (A) (A) (A) (A) (A) (A)
                 (A) (A) (A) (A) (A) (A) (A) (A) (A) (A) (A) (A)
                 (A) (A) (A) (A) (A) (A) (A) (A) (A) (A) (A) (A)
                 (A) (A) (A) (A) (A) (A) (A) (A) (A) (A) (A) (A)
                 (A) (A) (A) (A) (A) (A) (A) (A) (A) (A) (A) (A)
                 (A) (A) (A) (A) (A) (A) (A) (A) (A) (A) (A) (A)
                 (A) (A) (A) (A) (A) (A) (A) (A) (A) (A) (A) (A)
                 (A) (A) (A) (A) (A) (A) (A) (A) (A) (A) (A) (A)
                 (A) (A) (A) (A) (A) (A) (A) (A) (A)
 The electronic state is 1-A.
 Alpha  occ. eigenvalues --  -66.29393 -19.35399 -19.26418 -19.26103 -19.24876
 Alpha  occ. eigenvalues --  -19.17033 -10.37509 -10.35268 -10.35094 -10.34674
 Alpha  occ. eigenvalues --   -5.41438  -3.76193  -3.75950  -3.75533  -1.22654
 Alpha  occ. eigenvalues --   -1.16286  -1.12841  -1.10648  -0.99188  -0.87530
 Alpha  occ. eigenvalues --   -0.84886  -0.75306  -0.73025  -0.68968  -0.62977
 Alpha  occ. eigenvalues --   -0.62641  -0.61396  -0.59718  -0.58959  -0.56923
 Alpha  occ. eigenvalues --   -0.52883  -0.52576  -0.52038  -0.51025  -0.47788
 Alpha  occ. eigenvalues --   -0.44557  -0.44051  -0.42546  -0.41626  -0.40370
 Alpha  occ. eigenvalues --   -0.38323  -0.38122  -0.35635  -0.34889
 Alpha virt. eigenvalues --    0.07724   0.10852   0.12017   0.12226   0.14194
 Alpha virt. eigenvalues --    0.15567   0.15960   0.16674   0.16823   0.17682
 Alpha virt. eigenvalues --    0.18847   0.20211   0.20983   0.21418   0.21628
 Alpha virt. eigenvalues --    0.25185   0.25613   0.26221   0.26473   0.27571
 Alpha virt. eigenvalues --    0.28711   0.29231   0.29721   0.30449   0.32597
 Alpha virt. eigenvalues --    0.33446   0.35780   0.38280   0.38990   0.40030
 Alpha virt. eigenvalues --    0.40094   0.41556   0.42839   0.43304   0.43449
 Alpha virt. eigenvalues --    0.44302   0.45085   0.45710   0.46204   0.46837
 Alpha virt. eigenvalues --    0.48273   0.49166   0.49351   0.50638   0.50786
 Alpha virt. eigenvalues --    0.52050   0.52761   0.53432   0.54158   0.56302
 Alpha virt. eigenvalues --    0.56559   0.58345   0.58833   0.59451   0.62000
 Alpha virt. eigenvalues --    0.62954   0.64798   0.64973   0.66736   0.69743
 Alpha virt. eigenvalues --    0.70535   0.70710   0.72619   0.73077   0.75405
 Alpha virt. eigenvalues --    0.78640   0.79073   0.80386   0.81461   0.81928
 Alpha virt. eigenvalues --    0.82920   0.84085   0.84881   0.88409   0.88857
 Alpha virt. eigenvalues --    0.89891   0.90843   0.92185   0.92628   0.94141
 Alpha virt. eigenvalues --    0.94883   0.97400   0.99906   1.00667   1.01733
 Alpha virt. eigenvalues --    1.02864   1.03491   1.04959   1.05645   1.06731
 Alpha virt. eigenvalues --    1.07457   1.09021   1.10245   1.11218   1.12237
 Alpha virt. eigenvalues --    1.13704   1.14600   1.15590   1.16066   1.18193
 Alpha virt. eigenvalues --    1.18603   1.21344   1.22633   1.23877   1.24354
 Alpha virt. eigenvalues --    1.25558   1.27067   1.27419   1.27815   1.29708
 Alpha virt. eigenvalues --    1.30826   1.32791   1.33943   1.34617   1.37869
 Alpha virt. eigenvalues --    1.38910   1.39067   1.40190   1.40928   1.44131
 Alpha virt. eigenvalues --    1.44758   1.44990   1.47235   1.48191   1.49879
 Alpha virt. eigenvalues --    1.50695   1.50930   1.53570   1.54489   1.55523
 Alpha virt. eigenvalues --    1.58004   1.59445   1.60042   1.60595   1.62555
 Alpha virt. eigenvalues --    1.64756   1.65195   1.66299   1.68769   1.69544
 Alpha virt. eigenvalues --    1.76422   1.78150   1.80807   1.82327   1.85229
 Alpha virt. eigenvalues --    1.86757   1.89728   1.93444   1.94808   1.96407
 Alpha virt. eigenvalues --    1.97639   1.98944   2.02310   2.03274   2.05011
 Alpha virt. eigenvalues --    2.06910   2.08047   2.08538   2.10690   2.13183
 Alpha virt. eigenvalues --    2.15158   2.17582   2.20154   2.20953   2.24218
 Alpha virt. eigenvalues --    2.25630   2.26756   2.28756   2.30928   2.33975
 Alpha virt. eigenvalues --    2.37202   2.39359   2.40112   2.41241   2.42925
 Alpha virt. eigenvalues --    2.45181   2.49200   2.50306   2.56200   2.57606
 Alpha virt. eigenvalues --    2.59768   2.64786   2.64989   2.65675   2.67132
 Alpha virt. eigenvalues --    2.68650   2.72115   2.73478   2.74168   2.77193
 Alpha virt. eigenvalues --    2.77666   2.80339   2.82398   2.83227   2.85493
 Alpha virt. eigenvalues --    2.86161   2.89405   2.90857   2.92043   2.93728
 Alpha virt. eigenvalues --    2.94631   2.96512   2.99004   2.99356   3.02692
 Alpha virt. eigenvalues --    3.03823   3.04254   3.04847   3.06104   3.08035
 Alpha virt. eigenvalues --    3.09573   3.10141   3.11350   3.12470   3.15944
 Alpha virt. eigenvalues --    3.16135   3.18054   3.19061   3.20557   3.21804
 Alpha virt. eigenvalues --    3.23855   3.25006   3.25486   3.26643   3.28565
 Alpha virt. eigenvalues --    3.30874   3.31970   3.33421   3.35707   3.37539
 Alpha virt. eigenvalues --    3.37642   3.38545   3.39596   3.43259   3.46747
 Alpha virt. eigenvalues --    3.47575   3.49286   3.50863   3.54289   3.57121
 Alpha virt. eigenvalues --    3.58098   3.59294   3.60348   3.63159   3.63823
 Alpha virt. eigenvalues --    3.65470   3.66889   3.69070   3.70895   3.72301
 Alpha virt. eigenvalues --    3.72454   3.73572   3.74047   3.75255   3.78312
 Alpha virt. eigenvalues --    3.79344   3.80356   3.82322   3.85392   3.86301
 Alpha virt. eigenvalues --    3.87439   3.89664   3.91147   3.92488   3.93429
 Alpha virt. eigenvalues --    3.96211   3.98792   4.00016   4.01448   4.02680
 Alpha virt. eigenvalues --    4.05270   4.06722   4.08289   4.10241   4.11932
 Alpha virt. eigenvalues --    4.12675   4.14141   4.17876   4.18070   4.18992
 Alpha virt. eigenvalues --    4.20408   4.20791   4.23366   4.25440   4.25686
 Alpha virt. eigenvalues --    4.28860   4.29169   4.30725   4.31837   4.34711
 Alpha virt. eigenvalues --    4.35380   4.38876   4.40635   4.42826   4.45631
 Alpha virt. eigenvalues --    4.46380   4.46982   4.51710   4.55131   4.58734
 Alpha virt. eigenvalues --    4.60133   4.63568   4.64533   4.69802   4.70588
 Alpha virt. eigenvalues --    4.71108   4.74495   4.76569   4.77815   4.81003
 Alpha virt. eigenvalues --    4.81781   4.83117   4.85218   4.88007   4.89341
 Alpha virt. eigenvalues --    4.93140   4.95553   4.96178   4.98450   5.01461
 Alpha virt. eigenvalues --    5.03700   5.04860   5.05184   5.06660   5.10231
 Alpha virt. eigenvalues --    5.13937   5.15564   5.18856   5.19795   5.22888
 Alpha virt. eigenvalues --    5.24671   5.25494   5.32197   5.33046   5.34263
 Alpha virt. eigenvalues --    5.35832   5.36171   5.38368   5.40760   5.42935
 Alpha virt. eigenvalues --    5.43266   5.43737   5.47006   5.47775   5.51793
 Alpha virt. eigenvalues --    5.52092   5.53085   5.55649   5.56954   5.59426
 Alpha virt. eigenvalues --    5.60165   5.63626   5.66031   5.67759   5.68550
 Alpha virt. eigenvalues --    5.69798   5.73430   5.76222   5.78657   5.80348
 Alpha virt. eigenvalues --    5.82998   5.86121   5.89169   5.91578   5.95184
 Alpha virt. eigenvalues --    6.00904   6.02817   6.09189   6.11351   6.13825
 Alpha virt. eigenvalues --    6.15539   6.21509   6.26918   6.48416   6.50701
 Alpha virt. eigenvalues --    6.58143   6.64731   6.69018   6.70131   6.72221
 Alpha virt. eigenvalues --    6.73814   6.77713   6.79420   6.83093   6.83432
 Alpha virt. eigenvalues --    6.86024   6.88289   6.95336   6.97290   6.98709
 Alpha virt. eigenvalues --    7.00558   7.01895   7.04306   7.06501   7.10303
 Alpha virt. eigenvalues --    7.11175   7.14991   7.18491   7.24354   7.30304
 Alpha virt. eigenvalues --    7.32537   7.47106   7.53560   7.58677   7.61106
 Alpha virt. eigenvalues --    7.64438   7.76359  12.60033  23.30834  23.37073
 Alpha virt. eigenvalues --   23.41883  23.45980  43.92161  44.08724  44.18755
 Alpha virt. eigenvalues --   44.21822  44.24783
          Condensed to atoms (all electrons):
               1          2          3          4          5          6
     1  Si  11.683039   0.428641   0.677084   0.383215  -0.035247  -0.007117
     2  O    0.428641   7.867764  -0.017577  -0.013488   0.000637   0.000382
     3  O    0.677084  -0.017577   8.026896  -0.019476  -0.010857   0.000036
     4  O    0.383215  -0.013488  -0.019476   7.920749   0.003938   0.010348
     5  C   -0.035247   0.000637  -0.010857   0.003938   4.969355   0.411994
     6  H   -0.007117   0.000382   0.000036   0.010348   0.411994   0.534823
     7  H    0.001534  -0.000098  -0.000083   0.000618   0.411723  -0.017875
     8  C    0.023452  -0.000324   0.012360  -0.010490   0.250113  -0.025109
     9  H   -0.007853  -0.000064   0.000200   0.004219  -0.048858  -0.002610
    10  H    0.001249   0.000001   0.000417  -0.000052  -0.044040   0.004648
    11  O    0.209876  -0.016922  -0.035155  -0.016024   0.199744  -0.024785
    12  H   -0.013876   0.000756   0.004678   0.001142  -0.029776   0.007202
    13  O   -0.009321   0.000014  -0.035204   0.000175  -0.065174   0.004532
    14  H    0.000507   0.000215   0.056670   0.000496   0.003752  -0.000695
    15  C   -0.038677  -0.048818  -0.002556   0.267908   0.000805  -0.000441
    16  H    0.003752   0.004050  -0.000058  -0.036181   0.000356  -0.000611
    17  H   -0.006174   0.003777   0.000011  -0.037605  -0.000049   0.000134
    18  C   -0.039209   0.254517   0.000139  -0.060032   0.000123  -0.000076
    19  H    0.000793  -0.034510  -0.000013   0.003565  -0.000031   0.000013
    20  H   -0.005016  -0.039984  -0.000123   0.005150   0.000116   0.000108
               7          8          9         10         11         12
     1  Si   0.001534   0.023452  -0.007853   0.001249   0.209876  -0.013876
     2  O   -0.000098  -0.000324  -0.000064   0.000001  -0.016922   0.000756
     3  O   -0.000083   0.012360   0.000200   0.000417  -0.035155   0.004678
     4  O    0.000618  -0.010490   0.004219  -0.000052  -0.016024   0.001142
     5  C    0.411723   0.250113  -0.048858  -0.044040   0.199744  -0.029776
     6  H   -0.017875  -0.025109  -0.002610   0.004648  -0.024785   0.007202
     7  H    0.544991  -0.027127   0.006715  -0.009530  -0.029279  -0.003569
     8  C   -0.027127   4.701816   0.437266   0.424404  -0.035595  -0.012036
     9  H    0.006715   0.437266   0.583476  -0.027542   0.000145   0.002882
    10  H   -0.009530   0.424404  -0.027542   0.588642   0.002980   0.000737
    11  O   -0.029279  -0.035595   0.000145   0.002980   7.571194   0.313963
    12  H   -0.003569  -0.012036   0.002882   0.000737   0.313963   0.476821
    13  O    0.003886   0.256258  -0.037013  -0.027371  -0.013432   0.049588
    14  H   -0.000780  -0.030341  -0.012739   0.004068  -0.000025  -0.003546
    15  C    0.000081  -0.000704   0.000267  -0.000021   0.002433  -0.000080
    16  H   -0.000015   0.000066  -0.000046  -0.000001  -0.000048   0.000030
    17  H    0.000002   0.000020  -0.000020   0.000001  -0.000012  -0.000015
    18  C    0.000161  -0.000276   0.000233  -0.000004   0.002834   0.000496
    19  H   -0.000002   0.000004  -0.000003  -0.000000  -0.000118   0.000011
    20  H    0.000018   0.000113  -0.000004   0.000002   0.001969  -0.000042
              13         14         15         16         17         18
     1  Si  -0.009321   0.000507  -0.038677   0.003752  -0.006174  -0.039209
     2  O    0.000014   0.000215  -0.048818   0.004050   0.003777   0.254517
     3  O   -0.035204   0.056670  -0.002556  -0.000058   0.000011   0.000139
     4  O    0.000175   0.000496   0.267908  -0.036181  -0.037605  -0.060032
     5  C   -0.065174   0.003752   0.000805   0.000356  -0.000049   0.000123
     6  H    0.004532  -0.000695  -0.000441  -0.000611   0.000134  -0.000076
     7  H    0.003886  -0.000780   0.000081  -0.000015   0.000002   0.000161
     8  C    0.256258  -0.030341  -0.000704   0.000066   0.000020  -0.000276
     9  H   -0.037013  -0.012739   0.000267  -0.000046  -0.000020   0.000233
    10  H   -0.027371   0.004068  -0.000021  -0.000001   0.000001  -0.000004
    11  O   -0.013432  -0.000025   0.002433  -0.000048  -0.000012   0.002834
    12  H    0.049588  -0.003546  -0.000080   0.000030  -0.000015   0.000496
    13  O    7.958267   0.329553   0.000048  -0.000000  -0.000001   0.000032
    14  H    0.329553   0.409221   0.000010   0.000002   0.000004   0.000019
    15  C    0.000048   0.000010   4.693816   0.401276   0.438800   0.307643
    16  H   -0.000000   0.000002   0.401276   0.626883  -0.041922  -0.021039
    17  H   -0.000001   0.000004   0.438800  -0.041922   0.607050  -0.043622
    18  C    0.000032   0.000019   0.307643  -0.021039  -0.043622   4.722594
    19  H    0.000000  -0.000000  -0.021961   0.004937  -0.009133   0.413095
    20  H   -0.000001   0.000007  -0.039051  -0.011673   0.009022   0.420429
              19         20
     1  Si   0.000793  -0.005016
     2  O   -0.034510  -0.039984
     3  O   -0.000013  -0.000123
     4  O    0.003565   0.005150
     5  C   -0.000031   0.000116
     6  H    0.000013   0.000108
     7  H   -0.000002   0.000018
     8  C    0.000004   0.000113
     9  H   -0.000003  -0.000004
    10  H   -0.000000   0.000002
    11  O   -0.000118   0.001969
    12  H    0.000011  -0.000042
    13  O    0.000000  -0.000001
    14  H   -0.000000   0.000007
    15  C   -0.021961  -0.039051
    16  H    0.004937  -0.011673
    17  H   -0.009133   0.009022
    18  C    0.413095   0.420429
    19  H    0.603225  -0.039912
    20  H   -0.039912   0.628512
 Mulliken charges:
               1
     1  Si   0.749347
     2  O   -0.388970
     3  O   -0.657391
     4  O   -0.408174
     5  C   -0.018624
     6  H    0.105099
     7  H    0.118629
     8  C    0.036128
     9  H    0.101348
    10  H    0.081412
    11  O   -0.133746
    12  H    0.204635
    13  O   -0.414837
    14  H    0.243603
    15  C    0.039223
    16  H    0.070243
    17  H    0.079732
    18  C    0.041943
    19  H    0.080040
    20  H    0.070361
 Sum of Mulliken charges =  -0.00000
 Mulliken charges with hydrogens summed into heavy atoms:
               1
     1  Si   0.749347
     2  O   -0.388970
     3  O   -0.657391
     4  O   -0.408174
     5  C    0.205103
     8  C    0.218889
    11  O    0.070889
    13  O   -0.171234
    15  C    0.189198
    18  C    0.192344
 Electronic spatial extent (au):  <R**2>=           1663.0779
 Charge=              0.0000 electrons
 Dipole moment (field-independent basis, Debye):
    X=             -1.5859    Y=             -5.4935    Z=              1.6021  Tot=              5.9380
 Quadrupole moment (field-independent basis, Debye-Ang):
   XX=            -59.7240   YY=            -69.4282   ZZ=            -65.1591
   XY=             -3.9554   XZ=              3.0874   YZ=              0.8554
 Traceless Quadrupole moment (field-independent basis, Debye-Ang):
   XX=              5.0464   YY=             -4.6578   ZZ=             -0.3886
   XY=             -3.9554   XZ=              3.0874   YZ=              0.8554
 Octapole moment (field-independent basis, Debye-Ang**2):
  XXX=            -40.8553  YYY=            -17.2428  ZZZ=              6.5827  XYY=              4.5658
  XXY=            -21.6798  XXZ=             -4.9938  XZZ=              6.2198  YZZ=             -0.0385
  YYZ=              6.5339  XYZ=              3.8660
 Hexadecapole moment (field-independent basis, Debye-Ang**3):
 XXXX=          -1438.4293 YYYY=           -410.4190 ZZZZ=           -256.7385 XXXY=            -37.7062
 XXXZ=             -3.1496 YYYX=              1.3395 YYYZ=              8.7211 ZZZX=             12.1251
 ZZZY=              0.6704 XXYY=           -290.3012 XXZZ=           -269.2584 YYZZ=           -112.6300
 XXYZ=             -5.5453 YYXZ=              9.4230 ZZXY=              1.0577
 N-N= 7.314088442080D+02 E-N=-3.409709874858D+03  KE= 8.213058083344D+02
   1 Symmetry operations used in ECPInt.
 ECPInt:  NShTT=   15051 NPrTT=   41591 LenC2=   14305 LenP2D=   30959.
 LDataN:  DoStor=T MaxTD1= 7 Len=  274
 Calling FoFJK, ICntrl=      2127 FMM=F ISym2X=0 I1Cent= 0 IOpClX= 0 NMat=1 NMatS=1 NMatT=0.
 ***** Axes restored to original set *****
 -------------------------------------------------------------------
 Center     Atomic                   Forces (Hartrees/Bohr)
 Number     Number              X              Y              Z
 -------------------------------------------------------------------
      1       14          -0.011379588    0.013171473   -0.005681751
      2        8           0.003527085   -0.001077316    0.002836116
      3        8           0.003753135   -0.007693615    0.001492364
      4        8           0.003924978   -0.000703354    0.002319009
      5        6           0.000366181    0.000263788   -0.000575005
      6        1          -0.000125897   -0.000133104    0.000042309
      7        1          -0.000072405   -0.000059045    0.000090627
      8        6          -0.000102200    0.000553989   -0.000419049
      9        1           0.000027440    0.000065961   -0.000127523
     10        1          -0.000122930   -0.000090825    0.000012849
     11        8          -0.000815037   -0.002793240    0.000292236
     12        1           0.000685883    0.000553472    0.000245067
     13        8          -0.001089477   -0.000770336    0.000641054
     14        1           0.001734564    0.000330703   -0.000088982
     15        6          -0.002607159   -0.001216508   -0.001232430
     16        1           0.000766874    0.000481197    0.000341903
     17        1           0.001538917   -0.000722355    0.000840011
     18        6          -0.000219969    0.000158347   -0.001405413
     19        1           0.000137354   -0.000276842   -0.000061582
     20        1           0.000072250   -0.000042391    0.000438192
 -------------------------------------------------------------------
 Cartesian Forces:  Max     0.013171473 RMS     0.002846630

 GradGradGradGradGradGradGradGradGradGradGradGradGradGradGradGradGradGrad
 Berny optimization.
 FormGI is forming the generalized inverse of G from B-inverse, IUseBI=4.
 Internal  Forces:  Max     0.008660203 RMS     0.001228940
 Search for a local minimum.
 Step number   1 out of a maximum of  111
 All quantities printed in internal units (Hartrees-Bohrs-Radians)
 Mixed Optimization -- RFO/linear search
 Second derivative matrix not updated -- first step.
 ITU=  0
     Eigenvalues ---    0.00381   0.00576   0.00793   0.00859   0.01640
     Eigenvalues ---    0.02909   0.02988   0.04722   0.04821   0.04937
     Eigenvalues ---    0.05156   0.05202   0.05696   0.05977   0.06076
     Eigenvalues ---    0.09038   0.09167   0.10400   0.11124   0.11227
     Eigenvalues ---    0.11296   0.11316   0.12180   0.12330   0.12717
     Eigenvalues ---    0.13772   0.15487   0.16000   0.17188   0.20450
     Eigenvalues ---    0.20573   0.21982   0.22027   0.22213   0.24058
     Eigenvalues ---    0.27633   0.29506   0.34395   0.34500   0.34678
     Eigenvalues ---    0.34704   0.34893   0.34898   0.35034   0.35352
     Eigenvalues ---    0.36601   0.39083   0.39689   0.42647   0.44032
     Eigenvalues ---    0.44973   0.51196   0.52553   0.65461
 RFO step:  Lambda=-8.91309945D-04 EMin= 3.80905403D-03
 Linear search not attempted -- first point.
 Iteration  1 RMS(Cart)=  0.04199131 RMS(Int)=  0.00078434
 Iteration  2 RMS(Cart)=  0.00116138 RMS(Int)=  0.00004581
 Iteration  3 RMS(Cart)=  0.00000095 RMS(Int)=  0.00004581
 Variable       Old X    -DE/DX   Delta X   Delta X   Delta X     New X
                                 (Linear)    (Quad)   (Total)
    R1        3.08947   0.00218   0.00000   0.00556   0.00557   3.09503
    R2        2.90564  -0.00866   0.00000  -0.01321  -0.01321   2.89243
    R3        3.09999   0.00402   0.00000   0.01057   0.01054   3.11053
    R4        3.56118   0.00081   0.00000   0.00395   0.00395   3.56512
    R5        2.69198  -0.00047   0.00000  -0.00215  -0.00213   2.68986
    R6        2.69769   0.00018   0.00000   0.00063   0.00061   2.69830
    R7        2.05107   0.00003   0.00000   0.00010   0.00010   2.05116
    R8        2.05620   0.00004   0.00000   0.00013   0.00013   2.05632
    R9        2.88960  -0.00010   0.00000  -0.00035  -0.00035   2.88924
   R10        2.76453  -0.00074   0.00000  -0.00201  -0.00201   2.76252
   R11        2.06494  -0.00004   0.00000  -0.00012  -0.00012   2.06482
   R12        2.06159   0.00013   0.00000   0.00038   0.00038   2.06197
   R13        2.65307  -0.00080   0.00000  -0.00178  -0.00178   2.65129
   R14        1.84073  -0.00019   0.00000  -0.00037  -0.00037   1.84036
   R15        1.85378   0.00164   0.00000   0.00319   0.00319   1.85697
   R16        2.05850  -0.00015   0.00000  -0.00043  -0.00043   2.05807
   R17        2.06200   0.00078   0.00000   0.00224   0.00224   2.06424
   R18        2.90522  -0.00034   0.00000  -0.00366  -0.00366   2.90156
   R19        2.05841   0.00013   0.00000   0.00036   0.00036   2.05877
   R20        2.06669  -0.00009   0.00000  -0.00027  -0.00027   2.06642
    A1        2.17550   0.00132   0.00000   0.00451   0.00446   2.17996
    A2        1.72549  -0.00300   0.00000  -0.01526  -0.01536   1.71013
    A3        1.78788   0.00027   0.00000   0.00373   0.00370   1.79158
    A4        2.21396   0.00051   0.00000  -0.00117  -0.00120   2.21277
    A5        1.74927   0.00060   0.00000   0.00917   0.00913   1.75840
    A6        1.71125   0.00081   0.00000   0.00478   0.00477   1.71602
    A7        1.90835   0.00202   0.00000   0.01166   0.01155   1.91990
    A8        1.89259   0.00144   0.00000   0.01344   0.01326   1.90586
    A9        1.92998  -0.00030   0.00000   0.00013   0.00013   1.93010
   A10        1.97774   0.00007   0.00000  -0.00105  -0.00104   1.97670
   A11        1.85818   0.00089   0.00000   0.00442   0.00441   1.86259
   A12        1.95690   0.00068   0.00000   0.00411   0.00411   1.96102
   A13        1.84182   0.00038   0.00000   0.00060   0.00060   1.84242
   A14        1.89084  -0.00174   0.00000  -0.00835  -0.00835   1.88249
   A15        1.91817  -0.00005   0.00000  -0.00287  -0.00289   1.91528
   A16        1.89853   0.00031   0.00000   0.00405   0.00405   1.90258
   A17        1.91153  -0.00057   0.00000  -0.00302  -0.00303   1.90850
   A18        1.88863   0.00001   0.00000   0.00146   0.00147   1.89010
   A19        1.93694  -0.00011   0.00000  -0.00493  -0.00495   1.93198
   A20        1.90950   0.00044   0.00000   0.00560   0.00560   1.91510
   A21        2.05251  -0.00043   0.00000  -0.00479  -0.00484   2.04767
   A22        1.79825  -0.00093   0.00000  -0.01700  -0.01709   1.78116
   A23        1.80143   0.00036   0.00000  -0.00586  -0.00601   1.79542
   A24        1.84609  -0.00086   0.00000  -0.00532  -0.00532   1.84078
   A25        1.90508   0.00022   0.00000   0.00250   0.00253   1.90760
   A26        1.89445   0.00055   0.00000   0.01053   0.01055   1.90500
   A27        1.86340  -0.00007   0.00000   0.00028   0.00019   1.86360
   A28        1.91293  -0.00082   0.00000  -0.01210  -0.01212   1.90080
   A29        1.95063   0.00048   0.00000   0.00119   0.00125   1.95188
   A30        1.93577  -0.00031   0.00000  -0.00154  -0.00160   1.93417
   A31        1.87123  -0.00021   0.00000  -0.00350  -0.00360   1.86763
   A32        1.90373   0.00043   0.00000   0.00343   0.00346   1.90719
   A33        1.90297   0.00004   0.00000   0.00218   0.00221   1.90518
   A34        1.94755  -0.00029   0.00000   0.00113   0.00112   1.94867
   A35        1.93869   0.00007   0.00000  -0.00268  -0.00262   1.93606
   A36        1.89888  -0.00002   0.00000  -0.00041  -0.00043   1.89846
    D1        2.68382  -0.00057   0.00000   0.00804   0.00800   2.69182
    D2        0.10536   0.00127   0.00000   0.02746   0.02737   0.13273
    D3       -1.64590   0.00113   0.00000   0.02559   0.02559  -1.62032
    D4        0.24181  -0.00119   0.00000  -0.03022  -0.03010   0.21172
    D5       -2.31881   0.00038   0.00000  -0.01265  -0.01267  -2.33149
    D6        2.05724  -0.00131   0.00000  -0.02826  -0.02824   2.02900
    D7        2.57003  -0.00119   0.00000   0.02992   0.02983   2.59985
    D8       -1.74631  -0.00157   0.00000   0.00923   0.00922  -1.73710
    D9       -1.45905   0.00064   0.00000   0.04039   0.04035  -1.41870
   D10        0.50780   0.00026   0.00000   0.01971   0.01974   0.52754
   D11        0.80752   0.00168   0.00000   0.04390   0.04392   0.85144
   D12        2.77437   0.00129   0.00000   0.02321   0.02331   2.79768
   D13       -0.39211  -0.00095   0.00000  -0.01565  -0.01573  -0.40784
   D14       -2.50353  -0.00072   0.00000  -0.01689  -0.01691  -2.52044
   D15        1.70825  -0.00096   0.00000  -0.01966  -0.01972   1.68853
   D16       -2.59530   0.00002   0.00000   0.01997   0.02003  -2.57526
   D17        1.60373   0.00056   0.00000   0.02694   0.02700   1.63073
   D18       -0.48403   0.00068   0.00000   0.02296   0.02307  -0.46096
   D19        0.61576  -0.00001   0.00000  -0.03310  -0.03310   0.58266
   D20       -1.44903  -0.00017   0.00000  -0.03561  -0.03560  -1.48463
   D21        2.74794  -0.00055   0.00000  -0.04306  -0.04305   2.70489
   D22        2.81562   0.00021   0.00000  -0.03037  -0.03037   2.78526
   D23        0.75084   0.00005   0.00000  -0.03287  -0.03287   0.71797
   D24       -1.33538  -0.00033   0.00000  -0.04032  -0.04032  -1.37570
   D25       -1.44207  -0.00001   0.00000  -0.03244  -0.03245  -1.47452
   D26        2.77632  -0.00017   0.00000  -0.03494  -0.03495   2.74137
   D27        0.69010  -0.00055   0.00000  -0.04239  -0.04240   0.64771
   D28       -1.06728  -0.00070   0.00000  -0.04862  -0.04861  -1.11589
   D29       -3.03235   0.00041   0.00000  -0.02168  -0.02168  -3.05403
   D30       -3.11895  -0.00095   0.00000  -0.05112  -0.05112   3.11312
   D31        1.19917   0.00015   0.00000  -0.02418  -0.02419   1.17498
   D32        1.06539  -0.00106   0.00000  -0.05197  -0.05197   1.01341
   D33       -0.89969   0.00004   0.00000  -0.02503  -0.02504  -0.92473
   D34       -1.56837   0.00055   0.00000   0.02151   0.02150  -1.54686
   D35        0.55255   0.00004   0.00000   0.01269   0.01270   0.56525
   D36        2.63535   0.00026   0.00000   0.01501   0.01501   2.65036
   D37        0.56090  -0.00030   0.00000  -0.00898  -0.00899   0.55191
   D38        2.64439  -0.00008   0.00000  -0.00634  -0.00638   2.63801
   D39       -1.51659  -0.00026   0.00000  -0.00796  -0.00798  -1.52457
   D40        2.64289   0.00020   0.00000  -0.00508  -0.00507   2.63782
   D41       -1.55681   0.00042   0.00000  -0.00244  -0.00246  -1.55927
   D42        0.56540   0.00024   0.00000  -0.00406  -0.00407   0.56133
   D43       -1.49995  -0.00074   0.00000  -0.02095  -0.02092  -1.52087
   D44        0.58354  -0.00052   0.00000  -0.01831  -0.01831   0.56523
   D45        2.70574  -0.00070   0.00000  -0.01993  -0.01991   2.68583
         Item               Value     Threshold  Converged?
 Maximum Force            0.008660     0.000450     NO 
 RMS     Force            0.001229     0.000300     NO 
 Maximum Displacement     0.246214     0.001800     NO 
 RMS     Displacement     0.042187     0.001200     NO 
 Predicted change in Energy=-4.623662D-04
 GradGradGradGradGradGradGradGradGradGradGradGradGradGradGradGradGradGrad

                          Input orientation:                          
 ---------------------------------------------------------------------
 Center     Atomic      Atomic             Coordinates (Angstroms)
 Number     Number       Type             X           Y           Z
 ---------------------------------------------------------------------
      1         14           0        0.264414    0.167027   -0.278586
      2          8           0        1.480086   -0.386071   -1.226576
      3          8           0       -0.400741    1.538418   -0.418621
      4          8           0        0.711932   -0.572923    1.121985
      5          6           0       -2.153919   -1.263607    0.298464
      6          1           0       -1.630441   -1.806578    1.079046
      7          1           0       -2.898424   -1.899359   -0.176533
      8          6           0       -2.742715    0.063713    0.777154
      9          1           0       -2.095132    0.500475    1.541205
     10          1           0       -3.721324   -0.121689    1.222746
     11          8           0       -1.169484   -0.968388   -0.741139
     12          1           0       -1.672717   -0.416243   -1.365905
     13          8           0       -2.876956    0.933631   -0.315385
     14          1           0       -2.020357    1.411209   -0.376939
     15          6           0        2.034661   -1.090939    0.977468
     16          1           0        2.131170   -2.001209    1.567547
     17          1           0        2.750759   -0.352806    1.345698
     18          6           0        2.245598   -1.356125   -0.520115
     19          1           0        3.293857   -1.261397   -0.801352
     20          1           0        1.897113   -2.356156   -0.792588
 ---------------------------------------------------------------------
                    Distance matrix (angstroms):
                    1          2          3          4          5
     1  Si   0.000000
     2  O    1.637822   0.000000
     3  O    1.530606   2.809619   0.000000
     4  O    1.646024   2.478045   2.840646   0.000000
     5  C    2.868455   4.037550   3.382187   3.060773   0.000000
     6  H    3.054301   4.124210   3.865769   2.647727   1.085429
     7  H    3.779406   4.750156   4.256212   4.059588   1.088159
     8  C    3.188744   4.695667   3.014876   3.529703   1.528922
     9  H    2.998380   4.607468   2.790915   3.034392   2.158667
    10  H    4.268895   5.755323   4.059102   4.457300   2.148262
    11  O    1.886581   2.755896   2.641792   2.677191   1.461862
    12  H    2.296725   3.156025   2.517136   3.449738   1.928654
    13  O    3.233766   4.642812   2.551091   4.149199   2.393208
    14  H    2.603429   4.025568   1.625139   3.694449   2.762000
    15  C    2.508769   2.379538   3.846267   1.427879   4.246772
    16  H    3.405029   3.292370   4.783764   2.062223   4.529527
    17  H    3.015034   2.869200   4.076948   2.062842   5.097267
    18  C    2.510661   1.423412   3.923238   2.379501   4.475978
    19  H    3.389868   2.058343   4.651399   3.292349   5.557686
    20  H    3.048993   2.059974   4.537366   2.872310   4.335311
                    6          7          8          9         10
     6  H    0.000000
     7  H    1.786860   0.000000
     8  C    2.196880   2.188016   0.000000
     9  H    2.398337   3.058611   1.092657   0.000000
    10  H    2.689106   2.407333   1.091146   1.770030   0.000000
    11  O    2.056239   2.043213   2.417748   2.867661   3.329509
    12  H    2.812935   2.261989   2.442940   3.077352   3.314312
    13  O    3.317678   2.836472   1.403004   2.060534   2.047561
    14  H    3.553319   3.430892   1.915588   2.124689   2.793216
    15  C    3.735697   5.130360   4.919012   4.461568   5.842172
    16  H    3.798187   5.324378   5.351951   4.911287   6.156554
    17  H    4.623794   6.051635   5.538501   4.924325   6.477375
    18  C    4.217096   5.184025   5.346224   5.151499   6.337630
    19  H    5.299229   6.256337   6.378700   6.134572   7.389768
    20  H    4.030965   4.856476   5.463320   5.435527   6.373480
                   11         12         13         14         15
    11  O    0.000000
    12  H    0.973879   0.000000
    13  O    2.591217   2.091876   0.000000
    14  H    2.553255   2.106772   0.982665   0.000000
    15  C    3.638019   4.437485   5.467572   4.953619   0.000000
    16  H    4.158253   5.058341   6.102462   5.714962   1.089081
    17  H    4.483541   5.188830   6.007104   5.370547   1.092351
    18  C    3.444122   4.117273   5.614754   5.086945   1.535439
    19  H    4.473355   5.069504   6.567591   5.963542   2.186054
    20  H    3.366387   4.103126   5.817401   5.450906   2.180091
                   16         17         18         19         20
    16  H    0.000000
    17  H    1.774921   0.000000
    18  C    2.188049   2.177864   0.000000
    19  H    2.740592   2.393808   1.089457   0.000000
    20  H    2.398126   3.051949   1.093502   1.774675   0.000000
 Stoichiometry    C4H10O5Si
 Framework group  C1[X(C4H10O5Si)]
 Deg. of freedom    54
 Full point group                 C1      NOp   1
 Largest Abelian subgroup         C1      NOp   1
 Largest concise Abelian subgroup C1      NOp   1
                         Standard orientation:                         
 ---------------------------------------------------------------------
 Center     Atomic      Atomic             Coordinates (Angstroms)
 Number     Number       Type             X           Y           Z
 ---------------------------------------------------------------------
      1         14           0       -0.401070    0.579638   -0.099884
      2          8           0       -1.739021    0.853977    0.804043
      3          8           0        0.570264    1.661863   -0.577436
      4          8           0       -0.975635   -0.687032   -0.980121
      5          6           0        1.616989   -1.369642    0.496591
      6          1           0        0.999451   -2.131463    0.031369
      7          1           0        2.173813   -1.786786    1.333268
      8          6           0        2.520224   -0.636043   -0.495175
      9          1           0        2.017354   -0.554667   -1.461818
     10          1           0        3.437145   -1.211145   -0.633425
     11          8           0        0.704889   -0.388901    1.082477
     12          1           0        1.309165    0.302095    1.407767
     13          8           0        2.830318    0.635212    0.010961
     14          1           0        2.112319    1.226105   -0.306770
     15          6           0       -2.387490   -0.787513   -0.791952
     16          1           0       -2.684144   -1.834044   -0.845498
     17          1           0       -2.895001   -0.234673   -1.585697
     18          6           0       -2.696063   -0.176065    0.582270
     19          1           0       -3.697959    0.250479    0.616620
     20          1           0       -2.605642   -0.926198    1.372759
 ---------------------------------------------------------------------
 Rotational constants (GHZ):           2.3876843           0.8197925           0.7553609
 Standard basis: def2TZVPP (5D, 7F)
 There are   522 symmetry adapted cartesian basis functions of A   symmetry.
 There are   461 symmetry adapted basis functions of A   symmetry.
   461 basis functions,   698 primitive gaussians,   522 cartesian basis functions
    44 alpha electrons       44 beta electrons
       nuclear repulsion energy       734.3120915469 Hartrees.
 NAtoms=   20 NActive=   20 NUniq=   20 SFac= 1.00D+00 NAtFMM=   60 NAOKFM=F Big=F
 Integral buffers will be    131072 words long.
 Raffenetti 2 integral format.
 Two-electron integral symmetry is turned on.
 Nuclear repulsion after empirical dispersion term =      734.3008704633 Hartrees.
 One-electron integrals computed using PRISM.
   1 Symmetry operations used in ECPInt.
 ECPInt:  NShTT=   15051 NPrTT=   41591 LenC2=   14323 LenP2D=   31019.
 LDataN:  DoStor=T MaxTD1= 6 Len=  172
 NBasis=   461 RedAO= T EigKep=  2.08D-04  NBF=   461
 NBsUse=   461 1.00D-06 EigRej= -1.00D+00 NBFU=   461
 Initial guess from the checkpoint file:  "Opt_QbiLmL_zwitterion.chk"
 B after Tr=    -0.000000   -0.000000    0.000000
         Rot=    0.999969   -0.007796   -0.000322    0.000476 Ang=  -0.90 deg.
 ExpMin= 7.01D-02 ExpMax= 4.48D+04 ExpMxC= 1.53D+03 IAcc=3 IRadAn=         5 AccDes= 0.00D+00
 Harris functional with IExCor= 4639 and IRadAn=       5 diagonalized for initial guess.
 HarFok:  IExCor= 4639 AccDes= 0.00D+00 IRadAn=         5 IDoV= 1 UseB2=F ITyADJ=14
 ICtDFT=  3500011 ScaDFX=  1.000000  1.000000  1.000000  1.000000
 FoFCou: FMM=F IPFlag=           0 FMFlag=      100000 FMFlg1=           0
         NFxFlg=           0 DoJE=T BraDBF=F KetDBF=T FulRan=T
         wScrn=  0.000000 ICntrl=       500 IOpCl=  0 I1Cent=   200000004 NGrid=           0
         NMat0=    1 NMatS0=      1 NMatT0=    0 NMatD0=    1 NMtDS0=    0 NMtDT0=    0
 Petite list used in FoFCou.
 Requested convergence on RMS density matrix=1.00D-08 within 128 cycles.
 Requested convergence on MAX density matrix=1.00D-06.
 Requested convergence on             energy=1.00D-06.
 No special actions if energy rises.
 Integral accuracy reduced to 1.0D-05 until final iterations.
 Initial convergence to 1.0D-05 achieved.  Increase integral accuracy.
 SCF Done:  E(RwB97XD) =  -824.237873741     A.U. after   11 cycles
            NFock= 11  Conv=0.98D-08     -V/T= 2.0035
   1 Symmetry operations used in ECPInt.
 ECPInt:  NShTT=   15051 NPrTT=   41591 LenC2=   14323 LenP2D=   31019.
 LDataN:  DoStor=T MaxTD1= 7 Len=  274
 Calling FoFJK, ICntrl=      2127 FMM=F ISym2X=0 I1Cent= 0 IOpClX= 0 NMat=1 NMatS=1 NMatT=0.
 ***** Axes restored to original set *****
 -------------------------------------------------------------------
 Center     Atomic                   Forces (Hartrees/Bohr)
 Number     Number              X              Y              Z
 -------------------------------------------------------------------
      1       14          -0.000020873   -0.000313067   -0.001039355
      2        8           0.001314347    0.000464422    0.000746516
      3        8           0.007446912    0.000242001    0.000419868
      4        8           0.002678122    0.000791399    0.001035322
      5        6          -0.000055413   -0.000219166    0.000671824
      6        1           0.000299520   -0.000403777   -0.000364688
      7        1           0.000094778   -0.000050922    0.000050383
      8        6          -0.001485513    0.002927046   -0.002146899
      9        1           0.000107706   -0.000008194    0.000790397
     10        1           0.000093034   -0.000103596    0.000235011
     11        8           0.002410215   -0.001931895   -0.000386270
     12        1          -0.000696517    0.001227793   -0.000216888
     13        8          -0.013659329   -0.006568336    0.002870088
     14        1           0.005277567    0.004010704   -0.001685472
     15        6          -0.002219784   -0.000269161   -0.000381136
     16        1          -0.000037653   -0.000054450    0.000215222
     17        1          -0.000177481    0.000070323    0.000493436
     18        6          -0.001172917    0.000167589   -0.000974443
     19        1          -0.000176752    0.000055831   -0.000289666
     20        1          -0.000019968   -0.000034545   -0.000043251
 -------------------------------------------------------------------
 Cartesian Forces:  Max     0.013659329 RMS     0.002548385

 GradGradGradGradGradGradGradGradGradGradGradGradGradGradGradGradGradGrad
 Berny optimization.
 Using GEDIIS/GDIIS optimizer.
 FormGI is forming the generalized inverse of G from B-inverse, IUseBI=4.
 Internal  Forces:  Max     0.018546812 RMS     0.003920209
 Search for a local minimum.
 Step number   2 out of a maximum of  111
 All quantities printed in internal units (Hartrees-Bohrs-Radians)
 Mixed Optimization -- RFO/linear search
 Update second derivatives using D2CorX and points    2    1
 DE=  6.61D-04 DEPred=-4.62D-04 R=-1.43D+00
 Trust test=-1.43D+00 RLast= 1.92D-01 DXMaxT set to 1.50D-01
 ITU= -1  0
 Use linear search instead of GDIIS.
     Eigenvalues ---    0.00460   0.00573   0.00763   0.01363   0.01740
     Eigenvalues ---    0.01985   0.03866   0.04778   0.04804   0.04883
     Eigenvalues ---    0.05160   0.05556   0.05946   0.05972   0.06568
     Eigenvalues ---    0.08537   0.09141   0.10142   0.10952   0.11192
     Eigenvalues ---    0.11266   0.11297   0.11704   0.12254   0.13389
     Eigenvalues ---    0.13837   0.14140   0.16120   0.17002   0.19999
     Eigenvalues ---    0.20783   0.22021   0.22222   0.23586   0.27597
     Eigenvalues ---    0.29365   0.34391   0.34487   0.34553   0.34703
     Eigenvalues ---    0.34886   0.34896   0.35034   0.35352   0.35644
     Eigenvalues ---    0.38013   0.39153   0.41494   0.44000   0.44825
     Eigenvalues ---    0.49278   0.52486   0.58354   0.71122
 RFO step:  Lambda=-2.27763786D-03 EMin= 4.59740478D-03
 Quartic linear search produced a step of -0.67630.
 Iteration  1 RMS(Cart)=  0.08123042 RMS(Int)=  0.00200456
 Iteration  2 RMS(Cart)=  0.00316997 RMS(Int)=  0.00025121
 Iteration  3 RMS(Cart)=  0.00000454 RMS(Int)=  0.00025119
 Iteration  4 RMS(Cart)=  0.00000000 RMS(Int)=  0.00025119
 Variable       Old X    -DE/DX   Delta X   Delta X   Delta X     New X
                                 (Linear)    (Quad)   (Total)
    R1        3.09503  -0.00051  -0.00377   0.01684   0.01314   3.10818
    R2        2.89243  -0.00306   0.00893  -0.04166  -0.03273   2.85970
    R3        3.11053   0.00021  -0.00713   0.03270   0.02545   3.13598
    R4        3.56512   0.00651  -0.00267   0.02154   0.01887   3.58399
    R5        2.68986  -0.00107   0.00144  -0.00756  -0.00598   2.68388
    R6        2.69830  -0.00200  -0.00041   0.00035  -0.00018   2.69812
    R7        2.05116   0.00009  -0.00007   0.00037   0.00030   2.05147
    R8        2.05632  -0.00006  -0.00009   0.00034   0.00025   2.05658
    R9        2.88924   0.00397   0.00024   0.00296   0.00320   2.89244
   R10        2.76252   0.00667   0.00136  -0.00063   0.00072   2.76324
   R11        2.06482   0.00061   0.00008   0.00017   0.00025   2.06507
   R12        2.06197   0.00003  -0.00026   0.00119   0.00093   2.06290
   R13        2.65129  -0.00171   0.00120  -0.00656  -0.00536   2.64594
   R14        1.84036   0.00119   0.00025  -0.00043  -0.00018   1.84018
   R15        1.85697   0.00665  -0.00216   0.01364   0.01148   1.86845
   R16        2.05807   0.00016   0.00029  -0.00118  -0.00089   2.05718
   R17        2.06424   0.00010  -0.00151   0.00691   0.00539   2.06964
   R18        2.90156   0.00084   0.00247  -0.01086  -0.00835   2.89321
   R19        2.05877  -0.00009  -0.00024   0.00102   0.00078   2.05955
   R20        2.06642   0.00005   0.00019  -0.00079  -0.00061   2.06581
    A1        2.17996  -0.00272  -0.00301   0.00741   0.00385   2.18380
    A2        1.71013   0.00069   0.01039  -0.04784  -0.03814   1.67200
    A3        1.79158  -0.00399  -0.00250   0.00631   0.00359   1.79517
    A4        2.21277  -0.00069   0.00081  -0.00557  -0.00526   2.20751
    A5        1.75840   0.00934  -0.00618   0.04551   0.03912   1.79753
    A6        1.71602  -0.00312  -0.00322   0.01158   0.00819   1.72421
    A7        1.91990  -0.00071  -0.00781   0.03499   0.02648   1.94638
    A8        1.90586  -0.00045  -0.00897   0.04141   0.03136   1.93721
    A9        1.93010   0.00231  -0.00009  -0.00443  -0.00451   1.92559
   A10        1.97670   0.00092   0.00071   0.00422   0.00492   1.98162
   A11        1.86259  -0.01028  -0.00298  -0.00122  -0.00423   1.85836
   A12        1.96102  -0.00890  -0.00278  -0.00523  -0.00802   1.95300
   A13        1.84242  -0.00238  -0.00041   0.00468   0.00429   1.84671
   A14        1.88249   0.01855   0.00565   0.00250   0.00813   1.89062
   A15        1.91528  -0.00029   0.00196  -0.00264  -0.00067   1.91461
   A16        1.90258  -0.00185  -0.00274   0.00291   0.00016   1.90275
   A17        1.90850   0.00406   0.00205  -0.00294  -0.00088   1.90762
   A18        1.89010   0.00020  -0.00099   0.00231   0.00132   1.89142
   A19        1.93198   0.00228   0.00335   0.00087   0.00424   1.93622
   A20        1.91510  -0.00453  -0.00379  -0.00042  -0.00421   1.91089
   A21        2.04767   0.01367   0.00327   0.00770   0.01104   2.05871
   A22        1.78116   0.00173   0.01156  -0.02785  -0.01620   1.76496
   A23        1.79542  -0.00267   0.00406  -0.00540  -0.00118   1.79424
   A24        1.84078   0.00293   0.00359  -0.01074  -0.00714   1.83364
   A25        1.90760  -0.00027  -0.00171   0.00759   0.00606   1.91366
   A26        1.90500  -0.00032  -0.00714   0.03094   0.02394   1.92895
   A27        1.86360   0.00034  -0.00013   0.00067   0.00000   1.86360
   A28        1.90080  -0.00017   0.00820  -0.03738  -0.02927   1.87153
   A29        1.95188   0.00034  -0.00085   0.00466   0.00416   1.95604
   A30        1.93417   0.00006   0.00108  -0.00424  -0.00339   1.93078
   A31        1.86763   0.00025   0.00244  -0.01143  -0.00960   1.85803
   A32        1.90719  -0.00037  -0.00234   0.00989   0.00778   1.91497
   A33        1.90518  -0.00002  -0.00149   0.00678   0.00541   1.91059
   A34        1.94867   0.00014  -0.00076   0.00386   0.00308   1.95175
   A35        1.93606   0.00004   0.00177  -0.00746  -0.00537   1.93069
   A36        1.89846  -0.00005   0.00029  -0.00127  -0.00106   1.89740
    D1        2.69182  -0.00312  -0.00541   0.01975   0.01429   2.70611
    D2        0.13273   0.00066  -0.01851   0.09086   0.07182   0.20454
    D3       -1.62032   0.00447  -0.01730   0.08980   0.07235  -1.54797
    D4        0.21172  -0.00068   0.02035  -0.09959  -0.07856   0.13316
    D5       -2.33149   0.00417   0.00857  -0.03236  -0.02402  -2.35550
    D6        2.02900  -0.00521   0.01910  -0.09991  -0.08061   1.94838
    D7        2.59985  -0.00277  -0.02017   0.03978   0.01927   2.61912
    D8       -1.73710   0.00104  -0.00623   0.01879   0.01213  -1.72497
    D9       -1.41870  -0.00332  -0.02729   0.07124   0.04395  -1.37475
   D10        0.52754   0.00049  -0.01335   0.05025   0.03681   0.56435
   D11        0.85144  -0.00195  -0.02970   0.08550   0.05627   0.90771
   D12        2.79768   0.00187  -0.01576   0.06451   0.04913   2.84681
   D13       -0.40784  -0.00019   0.01064  -0.05276  -0.04252  -0.45035
   D14       -2.52044  -0.00030   0.01144  -0.05624  -0.04490  -2.56534
   D15        1.68853  -0.00001   0.01334  -0.06453  -0.05150   1.63703
   D16       -2.57526   0.00026  -0.01355   0.06677   0.05355  -2.52171
   D17        1.63073   0.00081  -0.01826   0.08929   0.07129   1.70202
   D18       -0.46096   0.00072  -0.01560   0.07704   0.06201  -0.39895
   D19        0.58266   0.00168   0.02239   0.02483   0.04722   0.62988
   D20       -1.48463   0.00271   0.02408   0.02184   0.04592  -1.43871
   D21        2.70489   0.00691   0.02912   0.02236   0.05147   2.75636
   D22        2.78526  -0.00183   0.02054   0.01790   0.03845   2.82370
   D23        0.71797  -0.00080   0.02223   0.01491   0.03715   0.75511
   D24       -1.37570   0.00339   0.02727   0.01543   0.04270  -1.33300
   D25       -1.47452   0.00170   0.02194   0.02221   0.04414  -1.43038
   D26        2.74137   0.00272   0.02364   0.01922   0.04284   2.78421
   D27        0.64771   0.00692   0.02867   0.01974   0.04839   0.69610
   D28       -1.11589   0.00497   0.03287  -0.00119   0.03168  -1.08421
   D29       -3.05403  -0.00148   0.01466   0.03255   0.04721  -3.00682
   D30        3.11312   0.00833   0.03457   0.00219   0.03677  -3.13329
   D31        1.17498   0.00188   0.01636   0.03593   0.05230   1.22728
   D32        1.01341   0.01053   0.03515   0.00452   0.03965   1.05307
   D33       -0.92473   0.00408   0.01694   0.03826   0.05518  -0.86954
   D34       -1.54686  -0.00207  -0.01454   0.05229   0.03775  -1.50911
   D35        0.56525   0.00167  -0.00859   0.04764   0.03904   0.60429
   D36        2.65036   0.00046  -0.01015   0.05078   0.04063   2.69099
   D37        0.55191   0.00009   0.00608  -0.02871  -0.02271   0.52921
   D38        2.63801  -0.00012   0.00431  -0.02161  -0.01751   2.62051
   D39       -1.52457  -0.00006   0.00540  -0.02578  -0.02049  -1.54507
   D40        2.63782   0.00018   0.00343  -0.01635  -0.01289   2.62493
   D41       -1.55927  -0.00004   0.00166  -0.00925  -0.00769  -1.56696
   D42        0.56133   0.00002   0.00275  -0.01343  -0.01068   0.55066
   D43       -1.52087   0.00024   0.01415  -0.06402  -0.04972  -1.57059
   D44        0.56523   0.00002   0.01238  -0.05692  -0.04452   0.52071
   D45        2.68583   0.00009   0.01347  -0.06110  -0.04750   2.63833
         Item               Value     Threshold  Converged?
 Maximum Force            0.018547     0.000450     NO 
 RMS     Force            0.003920     0.000300     NO 
 Maximum Displacement     0.260329     0.001800     NO 
 RMS     Displacement     0.081012     0.001200     NO 
 Predicted change in Energy=-1.371643D-03
 GradGradGradGradGradGradGradGradGradGradGradGradGradGradGradGradGradGrad

                          Input orientation:                          
 ---------------------------------------------------------------------
 Center     Atomic      Atomic             Coordinates (Angstroms)
 Number     Number       Type             X           Y           Z
 ---------------------------------------------------------------------
      1         14           0        0.283815    0.211886   -0.233806
      2          8           0        1.514632   -0.328342   -1.181716
      3          8           0       -0.349673    1.583029   -0.327093
      4          8           0        0.792960   -0.547608    1.151059
      5          6           0       -2.145651   -1.242173    0.330672
      6          1           0       -1.621789   -1.740009    1.140753
      7          1           0       -2.855473   -1.922908   -0.135304
      8          6           0       -2.806395    0.074005    0.747659
      9          1           0       -2.177382    0.586147    1.479945
     10          1           0       -3.769440   -0.143328    1.213479
     11          8           0       -1.143571   -0.949372   -0.693175
     12          1           0       -1.637088   -0.398902   -1.326954
     13          8           0       -3.005230    0.871453   -0.385925
     14          1           0       -2.158117    1.367825   -0.502640
     15          6           0        2.080510   -1.136765    0.967559
     16          1           0        2.138789   -2.069968    1.525065
     17          1           0        2.863510   -0.477100    1.356436
     18          6           0        2.256669   -1.353890   -0.537713
     19          1           0        3.303140   -1.293381   -0.836129
     20          1           0        1.863161   -2.329622   -0.834596
 ---------------------------------------------------------------------
                    Distance matrix (angstroms):
                    1          2          3          4          5
     1  Si   0.000000
     2  O    1.644777   0.000000
     3  O    1.513288   2.803454   0.000000
     4  O    1.659492   2.451679   2.833753   0.000000
     5  C    2.887079   4.064490   3.411738   3.129040   0.000000
     6  H    3.054608   4.150157   3.849082   2.693128   1.085589
     7  H    3.797654   4.768169   4.313631   4.105757   1.088293
     8  C    3.245255   4.749279   3.076968   3.674846   1.530615
     9  H    3.022334   4.642381   2.756752   3.196326   2.159766
    10  H    4.318528   5.804534   4.128980   4.580702   2.150232
    11  O    1.896568   2.773156   2.679057   2.704213   1.462245
    12  H    2.293012   3.155854   2.566167   3.473873   1.928073
    13  O    3.357973   4.743622   2.749870   4.336162   2.391611
    14  H    2.715051   4.102099   1.829645   3.887475   2.739827
    15  C    2.547598   2.364984   3.870297   1.427783   4.275181
    16  H    3.426575   3.278642   4.792423   2.066087   4.524184
    17  H    3.107797   2.878162   4.171684   2.081905   5.170031
    18  C    2.536961   1.420249   3.932286   2.375813   4.488541
    19  H    3.427090   2.061429   4.677167   3.287262   5.572555
    20  H    3.051974   2.060846   4.523608   2.874670   4.314043
                    6          7          8          9         10
     6  H    0.000000
     7  H    1.784307   0.000000
     8  C    2.201922   2.183962   0.000000
     9  H    2.415520   3.060097   1.092790   0.000000
    10  H    2.677141   2.412770   1.091640   1.771380   0.000000
    11  O    2.053556   2.046852   2.426579   2.854652   3.343685
    12  H    2.808626   2.286282   2.427950   3.023396   3.326567
    13  O    3.326318   2.809571   1.400169   2.061117   2.042521
    14  H    3.556265   3.383809   1.912455   2.131205   2.797322
    15  C    3.755119   5.118423   5.039460   4.621754   5.938797
    16  H    3.794537   5.265083   5.445716   5.068167   6.222234
    17  H    4.664693   6.084605   5.729062   5.153285   6.642881
    18  C    4.243674   5.159429   5.415319   5.243615   6.391097
    19  H    5.325641   6.230246   6.457905   6.239627   7.452845
[...]
 629,-0.00175994,0.00028003,0.03482869,-0.15207226,-0.04940416,0.000673
 80,-0.00666641,-0.00321213,0.01152938,-0.01554193,-0.00549776,0.088729
 60,0.49102592,-0.00021704,-0.00381848,0.00350836,-0.00011470,0.0010072
 5,-0.00015545,-0.00723254,0.00199349,-0.00397916,0.00043309,-0.0002097
 5,-0.00096165,0.00204092,-0.03315339,-0.08770070,-0.01172307,0.0203175
 3,0.01126536,0.00837043,-0.01610250,-0.00585961,-0.01222412,0.01891046
 ,0.55845585,-0.00052394,0.00077452,0.00089968,0.00017188,-0.00022642,-
 0.00009367,0.00034488,-0.00059653,0.00036857,0.00021037,-0.00025633,0.
 00000167,0.00970707,0.01112658,0.01172834,0.00092933,-0.00086971,-0.00
 016685,-0.00074001,0.00306608,0.00149579,-0.13562103,-0.07259810,-0.09
 595848,0.13921113,0.00025993,0.00005315,-0.00165748,0.00012618,-0.0000
 2243,0.00016867,0.00003775,-0.00060805,0.00032670,-0.00043588,0.000195
 36,0.00035113,-0.01736804,-0.01838977,-0.01755562,-0.00010872,0.000613
 06,0.00006529,0.00334899,-0.00366550,-0.00157691,-0.07341397,-0.115547
 42,-0.08969494,0.07328726,0.12696154,0.00157128,-0.00168527,-0.0017765
 0,-0.00016365,0.00031003,0.00009719,-0.00021650,-0.00011182,0.00193786
 ,-0.00048903,0.00047877,0.00002624,-0.00541877,-0.00651641,-0.00446368
 ,0.00033099,0.00031723,0.00071973,0.00070364,-0.00085886,0.00060619,-0
 .09071465,-0.08436026,-0.16262598,0.10757021,0.08747676,0.18620656,0.0
 0172671,-0.00005255,-0.00018554,-0.00034314,0.00017923,-0.00001488,-0.
 00036662,-0.00031235,0.00051458,-0.00040349,0.00027094,-0.00019350,-0.
 01257028,-0.00523730,0.00407258,-0.00017262,0.00076097,0.00011912,0.00
 118518,0.00015562,0.00021245,-0.26735851,-0.05047927,0.09237574,-0.013
 94698,-0.00236146,0.00659910,0.28041437,-0.00077050,-0.00269893,-0.000
 95031,0.00027607,0.00034585,0.00009124,-0.00133904,0.00065305,0.000305
 15,-0.00001214,0.00029158,0.00014448,0.02215148,0.00794254,-0.01000882
 ,-0.00029322,-0.00035874,0.00110822,-0.00046699,0.00127358,-0.00050333
 ,-0.04680282,-0.06036433,0.01611476,-0.01480802,-0.00167862,0.00602725
 ,0.05311581,0.07004821,0.00009192,-0.00027766,-0.00083241,0.00013060,-
 0.00002584,0.00002314,0.00095364,-0.00026697,0.00113957,-0.00013348,0.
 00007958,0.00015761,0.01185401,-0.00060113,-0.00344628,0.00059129,-0.0
 0076231,-0.00048924,-0.00028344,0.00032213,0.00034772,0.08310783,0.017
 27448,-0.08492375,-0.01877701,-0.00379627,0.01062787,-0.10114073,-0.02
 813711,0.09986343,-0.01828887,-0.00713268,0.00036047,-0.01785487,-0.00
 395406,-0.00061337,0.00423611,-0.01160587,-0.00377773,-0.01066350,-0.0
 0065531,-0.01076692,-0.12268480,-0.00719973,0.01059665,0.00983894,0.00
 223594,-0.00705275,-0.02597002,-0.00900664,0.03299547,-0.02786333,-0.0
 0268586,0.02234511,0.00057695,0.00088331,0.00059762,-0.00059558,0.0068
 3005,0.00159371,0.38770313,0.00592015,-0.04186493,0.00271773,-0.004613
 60,0.00434348,-0.00166315,-0.01394455,-0.02509085,-0.00507531,0.000664
 81,0.00625475,0.00212735,-0.02038220,-0.07058206,0.02119669,-0.0151201
 2,-0.00280678,0.01374165,-0.01917771,-0.00315637,0.02304158,0.02109851
 ,0.00166981,-0.01139069,-0.00097283,0.00189883,0.00060135,0.00221570,-
 0.00311341,-0.00159852,-0.07947040,0.28066551,-0.00605946,-0.00726245,
 -0.03874338,0.01084464,0.00129494,0.00455820,-0.00245958,-0.00145991,0
 .00931733,-0.01405098,-0.00160170,-0.00607361,0.04672181,0.01098938,-0
 .12311714,0.02724254,0.00585297,-0.02353053,0.00160425,0.00272636,0.00
 308082,0.02479998,0.00982263,-0.02162118,-0.00108652,0.00031456,0.0007
 9845,0.00108586,-0.00556493,-0.00024831,0.07668425,-0.18059301,0.40461
 291,-0.01504420,0.00219957,-0.01567597,0.00097430,-0.00114366,0.001517
 71,-0.00086082,0.00443776,0.00360030,-0.00093687,-0.00119947,-0.000433
 08,0.01656413,-0.01254854,0.02006120,-0.00423217,-0.00040490,0.0040419
 0,-0.00053798,-0.00117014,0.00041831,-0.00044783,-0.00314612,0.0070537
 7,-0.00015629,0.00037549,-0.00112898,-0.00008332,0.00064611,-0.0005379
 6,-0.17230442,0.11860957,-0.15803510,0.17158097,-0.00473085,0.01607784
 ,-0.00691456,-0.00063136,-0.00199498,0.00031182,0.00450063,-0.00195746
 ,0.00332377,-0.00299249,-0.00153373,-0.00243075,-0.00102716,-0.0038528
 0,0.01520402,-0.00087335,-0.00097371,-0.00048515,0.00029613,-0.0006214
 8,-0.00011512,0.00100740,0.00379922,-0.00572415,0.00024376,-0.00060959
 ,0.00077359,-0.00013207,-0.00098907,0.00082164,0.11229479,-0.14678628,
 0.16140035,-0.10502234,0.14609423,-0.01302779,-0.00208089,-0.00275786,
 0.00098795,-0.00024017,-0.00108869,0.00251712,0.00402850,-0.00047736,0
 .00062650,-0.00017691,0.00058353,-0.00687359,0.02044171,-0.02903700,0.
 00402394,0.00098417,-0.00207873,-0.00060551,-0.00027523,0.00133703,-0.
 00105246,-0.00059950,-0.00302944,0.00017276,0.00014079,-0.00017663,-0.
 00060023,0.00088929,0.00025140,-0.13068207,0.14660961,-0.21335351,0.14
 757709,-0.16889762,0.24936884,0.00212161,-0.01308934,0.00177083,-0.001
 95039,0.00299807,0.00024167,-0.02996488,0.00133390,-0.00218121,-0.0013
 0121,0.00229987,-0.00135244,-0.00956639,0.01555832,-0.00525862,0.00019
 156,0.00229136,0.00112477,0.00004759,0.00081052,0.00016130,-0.09131197
 ,-0.01458208,-0.01218754,0.00085123,0.01390575,-0.01543505,0.01186560,
 -0.02020397,0.02474836,0.00035345,0.01016897,-0.00778248,0.00017401,-0
 .00363600,-0.00313187,0.41245556,-0.00388059,-0.01564843,0.00076528,-0
 .00037080,0.00280666,-0.00023994,-0.01670018,0.00908826,-0.00073422,0.
 00108266,0.00266626,-0.00052727,0.01511598,-0.03108791,0.03773231,0.00
 324308,-0.00595426,-0.00363389,-0.00111994,0.00208860,-0.00031582,0.01
 294577,-0.13040021,0.09218131,0.00207172,0.00844571,-0.00086002,0.0003
 5611,-0.01177531,0.01748881,0.00756949,0.00039760,0.00545453,-0.004878
 84,-0.00040327,0.00206736,0.17495317,0.31933049,-0.00231968,0.00288257
 ,-0.00385664,0.00076160,-0.00085746,0.00052113,0.00534302,-0.00098855,
 0.00579065,-0.00021424,-0.00077327,0.00160290,-0.00154844,0.01729965,-
 0.00703009,0.00043991,0.00034158,0.00083821,-0.00029189,0.00155101,0.0
 0191518,-0.04350751,0.06781409,-0.18917609,-0.00725275,0.02512762,-0.0
 3235207,-0.00186275,0.01617686,-0.01742661,0.00707083,-0.00973137,0.00
 786336,-0.00825596,0.00663394,0.00045917,0.03098461,-0.15921307,0.2711
 9394,-0.00412858,0.02554939,-0.00235099,0.00268088,-0.00529857,-0.0001
 5819,0.01478089,-0.01091080,0.00273898,0.00104446,-0.00449585,0.001936
 72,0.00324881,0.00230577,-0.00626710,-0.00092213,0.00094601,0.00065770
 ,-0.00034028,-0.00030358,0.00052442,0.00644176,0.00051911,0.00696817,-
 0.00085644,0.00141485,-0.00388720,0.00047165,0.00172777,-0.00214443,-0
 .00834200,-0.00443229,0.00046521,0.00520734,0.00020498,0.00063431,-0.2
 9493664,-0.19005653,0.02077770,0.27649229,0.00708893,0.00545831,0.0003
 8409,0.00025901,-0.00152161,0.00007677,0.00067898,-0.01122051,0.000279
 85,-0.00033515,-0.00117682,0.00017776,-0.00138005,-0.00225737,0.001876
 57,0.00022472,0.00027678,-0.00013010,-0.00005157,0.00018633,0.00009802
 ,-0.01805939,-0.02032569,0.00932635,-0.00036140,0.00250112,-0.00147753
 ,0.00171008,0.00034466,-0.00051985,-0.00296827,-0.00073473,-0.00126626
 ,0.00290050,-0.00563920,-0.00290488,-0.17226406,-0.14985691,0.03365482
 ,0.18239815,0.18420686,-0.00025240,0.00042340,0.00112373,0.00021072,-0
 .00036828,-0.00003251,0.00108437,0.00029772,-0.00858694,0.00003064,0.0
 0040339,-0.00033816,-0.00063651,-0.00027653,-0.00020048,0.00016405,0.0
 0012020,-0.00005063,0.00011155,-0.00006672,-0.00022822,0.03025150,0.02
 859805,-0.01318712,0.00122659,0.00027255,0.00035668,-0.00105900,0.0043
 1812,-0.00503874,0.00014226,-0.00012128,-0.00004836,0.00014117,-0.0036
 7002,0.00013084,-0.01209361,0.00956576,-0.04016759,-0.01936913,-0.0394
 7044,0.06635517,-0.01566433,0.01928439,-0.03609226,-0.01392113,0.01101
 476,-0.00619264,0.00251820,-0.00380824,0.00574213,-0.18214686,0.061728
 89,0.00708030,-0.00104762,-0.00021535,0.00003559,-0.00066515,-0.000567
 18,0.00010901,0.00033584,-0.00006797,0.00023932,-0.00030615,0.00014840
 ,-0.00010895,-0.00026548,0.00021813,0.00020453,0.00020825,0.00005627,0
 .00002992,0.00177154,0.00013545,0.00215497,0.00019203,0.00032734,-0.00
 064037,0.00099548,-0.00023891,0.00011304,-0.00104535,0.00004988,-0.000
 01624,0.50351859,0.01538226,-0.01397308,0.02570431,0.01708783,-0.01124
 327,0.02940360,0.00001899,0.00054930,-0.00066066,0.05628744,-0.0957430
 9,0.00020175,0.00061001,0.00015948,-0.00027353,0.00013049,0.00069351,-
 0.00007539,-0.00020832,0.00008056,-0.00027216,0.00025003,-0.00022868,0
 .00032515,0.00013493,-0.00022096,-0.00014627,-0.00013832,-0.00001515,-
 0.00006274,-0.00236704,-0.00018930,-0.00322802,-0.00042152,-0.00064817
 ,0.00005958,-0.00029468,0.00030729,-0.00022284,0.00013601,-0.00017510,
 0.00011454,0.05141868,0.60284371,-0.01780686,0.01290031,-0.00084469,-0
 .00437210,0.01375002,-0.03207259,-0.00004724,0.00133547,-0.00229619,0.
 01794718,-0.01147620,-0.07252756,0.00034700,0.00016483,0.00002516,0.00
 008753,-0.00003004,0.00003731,-0.00000519,0.00001426,-0.00001042,0.000
 05943,-0.00002027,-0.00013031,-0.00007265,0.00006277,-0.00000542,0.000
 01402,0.00000853,0.00002147,-0.00126130,-0.00052796,-0.00235148,-0.000
 15714,-0.00025133,-0.00012225,-0.00009281,-0.00003960,0.00006836,0.000
 19254,0.00004140,-0.00004898,0.06703315,-0.05555807,0.50145242,-0.0016
 9485,0.00227074,0.00422334,0.00179855,-0.00035027,0.00041541,-0.000715
 96,0.00075599,-0.00144026,-0.01199664,0.03549225,-0.01738989,0.0001457
 0,0.00013533,-0.00023805,-0.00001565,0.00004577,0.00003777,-0.00001961
 ,-0.00002470,0.00002617,-0.00001046,0.00014232,0.00001626,0.00003374,-
 0.00001343,-0.00003089,-0.00002149,-0.00001721,-0.00000373,-0.00033239
 ,-0.00038246,-0.00023324,-0.00000493,0.00003389,0.00003968,-0.00016601
 ,-0.00019244,0.00009043,0.00031653,0.00008100,-0.00003324,-0.04924857,
 -0.01774598,0.00891229,0.05828417,-0.00035294,-0.00057419,-0.00442136,
 -0.00118040,0.00221802,-0.00205195,0.00059273,-0.00041443,0.00086446,0
 .01269712,-0.01276503,0.00678078,-0.00013849,-0.00007051,0.00015292,-0
 .00001575,-0.00009127,0.00003992,0.00004611,-0.00000120,0.00001569,-0.
 00002135,-0.00004521,0.00002128,-0.00003884,0.00001382,0.00003454,0.00
 003675,0.00001148,0.00000339,0.00039056,0.00022746,0.00016233,-0.00001
 436,0.00000850,-0.00005614,0.00019835,0.00008040,-0.00007020,-0.000284
 47,-0.00004734,0.00001680,-0.01100109,-0.24649658,0.11623513,0.0021719
 5,0.26641822,0.00230074,-0.00078605,-0.00240814,-0.00183803,0.00153900
 ,-0.00644721,-0.00041322,0.00014624,0.00046712,0.00153440,-0.00719856,
 0.00642245,0.00003357,0.00005647,-0.00019300,-0.00004142,0.00004511,0.
 00005598,-0.00003958,-0.00000711,0.00001413,-0.00003020,0.00004140,0.0
 0001403,0.00000945,-0.00001050,-0.00000921,-0.00001114,0.00000054,0.00
 000205,-0.00035229,-0.00022101,0.00018182,0.00007032,0.00001034,-0.000
 02321,-0.00007968,-0.00007685,0.00004384,0.00013813,0.00002642,-0.0000
 0072,0.00270121,0.11712937,-0.12213124,-0.00317962,-0.12605768,0.12704
 426,-0.00198125,-0.00370714,0.00612374,0.00101332,-0.00025640,-0.00081
 905,0.00002881,0.00082342,-0.00058903,-0.03961954,-0.00111064,-0.01089
 982,0.00038666,0.00009765,-0.00012038,0.00010401,0.00017854,-0.0000416
 3,-0.00007658,0.00002423,-0.00006506,0.00008783,-0.00013388,0.00004645
 ,0.00004209,-0.00005975,-0.00005351,-0.00005218,0.00000462,-0.00001371
 ,-0.00101024,-0.00000197,-0.00111916,-0.00009351,-0.00027984,0.0000478
 7,-0.00014180,0.00017254,-0.00002937,0.00008588,-0.00006603,0.00000495
 ,-0.17196036,-0.11315822,-0.06610873,0.00169768,-0.00218452,-0.0007993
 6,0.20492499,0.00176272,0.00090450,-0.00108718,-0.00111711,0.00129921,
 -0.00042842,-0.00035173,-0.00013692,-0.00001571,0.02160638,0.01221048,
 0.00705724,-0.00004625,-0.00003171,0.00005970,0.00000999,-0.00009230,-
 0.00000198,0.00002015,-0.00001053,0.00002802,-0.00001279,0.00002629,-0
 .00005314,-0.00000167,0.00002680,0.00001246,0.00000571,-0.00000421,0.0
 0000933,0.00045507,0.00007670,0.00061158,0.00011266,0.00009387,0.00004
 424,-0.00004732,-0.00004394,0.00002498,0.00007948,0.00002283,-0.000009
 95,-0.11779551,-0.15254285,-0.05425694,-0.01939106,-0.01537152,-0.0104
 8185,0.11566509,0.15601106,-0.00031210,-0.00032689,-0.00106374,0.00042
 725,0.00183388,0.00112391,0.00010342,0.00008967,0.00010317,0.00464317,
 0.00257208,0.00666420,0.00000743,0.00001432,-0.00007400,-0.00001983,0.
 00000108,-0.00000661,0.00000645,-0.00000442,0.00000727,-0.00000299,-0.
 00000349,0.00001709,0.00000039,0.00000505,0.00000694,0.00000081,0.0000
 0469,0.00000134,0.00006391,0.00007533,0.00017989,0.00001978,-0.0000146
 5,0.00000711,0.00001690,0.00001819,0.00000189,-0.00003415,-0.00001031,
 0.00000276,-0.06667276,-0.05261312,-0.08757570,0.01192311,0.01095944,0
 .00735518,0.07008594,0.06158108,0.08910988,-0.03042924,0.02342406,0.01
 456235,-0.10408900,0.05246957,-0.02472029,0.00253545,-0.00049586,-0.00
 089487,-0.02594753,0.02440289,0.02616508,-0.00052557,-0.00058609,0.001
 10114,0.00006945,0.00010290,-0.00007474,0.00011813,0.00004849,-0.00015
 495,0.00018319,0.00005664,0.00020132,0.00001559,-0.00010298,-0.0000193
 7,0.00005846,-0.00007491,-0.00006968,0.00169271,0.00005572,-0.00077177
 ,-0.00009374,0.00032574,-0.00004037,0.00052639,0.00007072,-0.00037088,
 -0.00057323,0.00001093,0.00007485,-0.07373543,-0.00922138,-0.00600578,
 0.00161215,-0.00161652,0.00016718,0.00444569,-0.00194692,-0.02082523,0
 .62448071,0.03285226,-0.01671162,-0.01798282,0.05599948,-0.15440248,0.
 04375717,-0.00302694,0.00285864,0.00261738,0.01375765,-0.01149234,-0.0
 0238452,0.00029823,0.00052376,-0.00174619,-0.00004281,0.00006903,0.000
 29125,-0.00044615,-0.00009885,0.00031082,-0.00025110,0.00018448,-0.000
 11441,0.00006974,0.00001290,-0.00006831,-0.00012143,0.00005424,0.00005
 120,-0.00516768,-0.00285879,0.00306346,0.00089844,0.00018681,-0.000116
 55,-0.00079227,-0.00050294,0.00046384,0.00126766,0.00018719,-0.0001101
 7,-0.01282315,-0.08219928,-0.01770668,-0.00352592,0.00576372,0.0267704
 7,0.00333031,-0.00402565,-0.02402199,0.02776522,0.54327082,-0.00187819
 ,-0.00566625,0.01582039,-0.03793268,0.05354904,-0.09832224,0.00430401,
 -0.00226370,-0.00328927,0.01188473,0.00053504,-0.01803119,-0.00026923,
 -0.00037901,0.00128139,0.00011321,0.00008547,-0.00006556,0.00015841,0.
 00008474,-0.00021572,0.00019948,-0.00013670,0.00022537,-0.00004255,-0.
 00008056,0.00001168,0.00007540,-0.00003709,-0.00004958,0.00229490,0.00
 100082,-0.00203856,-0.00041637,-0.00007873,-0.00012021,0.00068549,0.00
 041013,-0.00038776,-0.00101106,-0.00019887,-0.00004990,0.01401791,-0.0
 3408303,-0.16761596,-0.00255695,-0.00344682,-0.01034145,0.00308205,-0.
 00136578,-0.01148247,-0.03706814,0.05399437,0.43993846,0.00136228,-0.0
 0069960,-0.00326561,-0.01605284,0.01120123,-0.00091790,-0.00059747,0.0
 0058415,0.00041906,0.00187916,-0.00068629,0.00030891,0.00018306,0.0000
 6393,-0.00030085,0.00000904,-0.00000087,-0.00000123,-0.00005502,-0.000
 01834,0.00004665,-0.00000333,-0.00002294,-0.00003220,0.00001506,0.0000
 0834,-0.00001426,-0.00002910,0.00001021,0.00000921,-0.00066485,-0.0002
 8449,0.00031811,0.00014075,-0.00001400,0.00008213,-0.00018853,-0.00000
 738,0.00005723,0.00023566,0.00001428,0.00000668,-0.00106938,-0.0017953
 7,0.00008297,-0.00031150,0.00067823,0.00070201,0.00117940,0.00031193,0
 .00014461,-0.29597748,-0.01169518,0.07277939,0.32145273,0.00026779,-0.
 00131518,0.00289490,0.03427062,-0.00775521,-0.00283917,0.00067355,-0.0
 0069131,-0.00063838,0.00086428,0.00058849,-0.00151678,0.00008596,-0.00
 000244,0.00021656,0.00001218,-0.00001407,-0.00004695,0.00007244,0.0000
 1715,-0.00005661,0.00002619,-0.00005978,0.00001627,-0.00001492,0.00000
 304,0.00001351,0.00001123,0.00000393,-0.00000142,0.00083630,0.00067030
 ,-0.00049061,-0.00012171,-0.00006592,0.00003764,0.00011258,0.00012724,
 -0.00004618,-0.00023092,-0.00006657,-0.00001524,0.00519142,0.00067925,
 -0.00422200,0.00032257,-0.00016403,-0.00065324,0.00017717,0.00050787,0
 .00018775,-0.02005259,-0.04989486,0.00346375,0.00414392,0.05666202,-0.
 00058910,0.00119000,-0.00502885,-0.02282962,0.00717576,0.00461855,-0.0
 0023900,0.00020684,0.00083645,0.00418491,-0.00354607,-0.00494263,0.000
 01016,0.00001091,-0.00022081,-0.00004816,-0.00007400,0.00000724,-0.000
 00390,-0.00002256,0.00006280,-0.00005360,0.00000917,-0.00006117,-0.000
 02298,0.00004195,0.00001652,0.00000356,0.00001425,0.00001193,-0.000187
 69,-0.00014635,0.00050460,0.00013040,0.00003995,0.00001480,-0.00002843
 ,-0.00004384,0.00007415,0.00006490,0.00002146,-0.00000146,0.02864594,0
 .00118084,-0.00253368,-0.00056303,0.00056168,-0.00123378,-0.00021478,-
 0.00062728,0.00132726,0.07660976,-0.00038566,-0.07296011,-0.07526337,-
 0.00411965,0.07523187,0.00142848,0.00240841,-0.00101916,0.00761563,0.0
 2366964,0.00292303,-0.00075261,-0.00007805,0.00020913,0.00106431,-0.00
 135864,-0.00018827,-0.00012218,-0.00012298,0.00017205,0.00000896,-0.00
 000837,0.00000302,0.00002259,0.00000534,-0.00001789,0.00001679,0.00009
 434,-0.00005263,0.00000086,-0.00000174,-0.00000551,0.00001310,-0.00002
 959,-0.00000631,0.00040203,-0.00008626,-0.00032334,-0.00003743,0.00010
 480,-0.00005508,-0.00005467,-0.00013564,0.00001508,0.00013850,0.000069
 46,0.00001081,0.00153591,0.00389415,0.00125369,0.00064955,0.00003693,-
 0.00087248,0.00093909,0.00068120,0.00042389,-0.10436671,-0.09834635,-0
 .02841981,-0.01150762,-0.02664806,-0.00960596,0.10300542,-0.00629447,-
 0.00246512,0.00451340,0.00626741,-0.03437163,0.00176342,0.00174925,-0.
 00025754,-0.00055787,0.00065233,0.00091804,-0.00074199,0.00013827,-0.0
 0002641,0.00007997,0.00000587,-0.00004435,-0.00007536,0.00007502,0.000
 01280,-0.00003397,0.00002296,-0.00017457,0.00004759,-0.00002981,0.0000
 1703,0.00003925,0.00001660,0.00002867,-0.00000077,0.00071805,0.0009790
 7,-0.00022620,-0.00010851,-0.00018482,0.00004501,0.00027885,0.00033467
 ,-0.00006801,-0.00053617,-0.00016221,-0.00002192,-0.00305620,-0.001637
 59,-0.00042361,0.00019167,0.00129969,-0.00027251,0.00048483,0.00108004
 ,-0.00034766,-0.09463562,-0.23092477,-0.06538683,-0.00179175,0.0007700
 9,-0.00148741,0.09585142,0.26480893,0.00193590,0.00048849,-0.00240783,
 0.00140570,0.02253469,0.00622053,-0.00059286,0.00013019,0.00033956,0.0
 0163099,0.00039704,0.00161809,0.00004082,-0.00004477,-0.00001567,0.000
 00244,-0.00004680,-0.00005852,-0.00000523,-0.00000841,0.00002186,0.000
 00503,-0.00002253,-0.00007447,0.00000003,0.00001843,-0.00000244,-0.000
 00544,-0.00000181,0.00000739,-0.00005108,-0.00004347,0.00002868,0.0000
 0860,0.00006268,0.00011219,-0.00011019,0.00000083,0.00002406,0.0001234
 6,0.00001473,0.00001064,-0.01838379,-0.02692330,-0.01133825,-0.0000155
 7,0.00025578,0.00118710,0.00148259,-0.00110040,-0.00570540,-0.02786561
 ,-0.06668268,-0.07230732,0.00483847,0.00781584,0.00427632,0.03555574,0
 .06315546,0.07806349\\-0.00000100,-0.00011119,-0.00001272,-0.00004045,
 0.00008316,-0.00000126,-0.00000251,0.00002219,-0.00000717,-0.00004660,
 0.00005547,-0.00003010,-0.00005185,0.00000337,0.00006127,-0.00000446,-
 0.00000961,0.00000188,-0.00000249,0.00001259,-0.00000441,0.00000181,-0
 .00003732,-0.00001766,0.00000255,-0.00000154,0.00000006,-0.00000354,-0
 .00000296,0.00001134,0.00003589,0.00011666,-0.00002759,0.00001938,-0.0
 0005199,0.00001172,0.00000104,-0.00001014,0.00000317,0.00000905,0.0000
 1077,-0.00001868,0.00004954,-0.00002587,0.00002914,-0.00000439,0.00000
 872,-0.00001042,-0.00000037,-0.00000460,-0.00001299,0.00004017,-0.0000
 7532,0.00000948,-0.00000251,0.00000574,0.00000593,0.00000073,0.0000118
 7,0.00000902\\\@
 The archive entry for this job was punched.


 GOORD'S AXIOM:  A MEETING IS AN EVENT AT WHICH
 THE MINUTES ARE KEPT AND THE HOURS ARE LOST.
 Job cpu time:       0 days  4 hours  9 minutes 36.4 seconds.
 Elapsed time:       0 days  1 hours  2 minutes 25.3 seconds.
 File lengths (MBytes):  RWF=    347 Int=      0 D2E=      0 Chk=     18 Scr=      1
 Normal termination of Gaussian 16 at Wed Apr 10 06:02:22 2024.
