 Entering Gaussian System, Link 0=/opt/software/gaussian/g16.c01/g16
 Initial command:
 /opt/software/gaussian/g16.c01/l1.exe "/scratch/arhender/17065878/Gau-187424.inp" -scrdir="/scratch/arhender/17065878/"
 Entering Link 1 = /opt/software/gaussian/g16.c01/l1.exe PID=    187425.
  
 Copyright (c) 1988-2019, Gaussian, Inc.  All Rights Reserved.
  
 This is part of the Gaussian(R) 16 program.  It is based on
 the Gaussian(R) 09 system (copyright 2009, Gaussian, Inc.),
 the Gaussian(R) 03 system (copyright 2003, Gaussian, Inc.),
 the Gaussian(R) 98 system (copyright 1998, Gaussian, Inc.),
 the Gaussian(R) 94 system (copyright 1995, Gaussian, Inc.),
 the Gaussian 92(TM) system (copyright 1992, Gaussian, Inc.),
 the Gaussian 90(TM) system (copyright 1990, Gaussian, Inc.),
 the Gaussian 88(TM) system (copyright 1988, Gaussian, Inc.),
 the Gaussian 86(TM) system (copyright 1986, Carnegie Mellon
 University), and the Gaussian 82(TM) system (copyright 1983,
 Carnegie Mellon University). Gaussian is a federally registered
 trademark of Gaussian, Inc.
  
 This software contains proprietary and confidential information,
 including trade secrets, belonging to Gaussian, Inc.
  
 This software is provided under written license and may be
 used, copied, transmitted, or stored only in accord with that
 written license.
  
 The following legend is applicable only to US Government
 contracts under FAR:
  
                    RESTRICTED RIGHTS LEGEND
  
 Use, reproduction and disclosure by the US Government is
 subject to restrictions as set forth in subparagraphs (a)
 and (c) of the Commercial Computer Software - Restricted
 Rights clause in FAR 52.227-19.
  
 Gaussian, Inc.
 340 Quinnipiac St., Bldg. 40, Wallingford CT 06492
  
  
 ---------------------------------------------------------------
 Warning -- This program may not be used in any manner that
 competes with the business of Gaussian, Inc. or will provide
 assistance to any competitor of Gaussian, Inc.  The licensee
 of this program is prohibited from giving any competitor of
 Gaussian, Inc. access to this program.  By using this program,
 the user acknowledges that Gaussian, Inc. is engaged in the
 business of creating and licensing software in the field of
 computational chemistry and represents and warrants to the
 licensee that it is not a competitor of Gaussian, Inc. and that
 it will not use this program in any manner prohibited above.
 ---------------------------------------------------------------
  

 Cite this work as:
 Gaussian 16, Revision C.01,
 M. J. Frisch, G. W. Trucks, H. B. Schlegel, G. E. Scuseria, 
 M. A. Robb, J. R. Cheeseman, G. Scalmani, V. Barone, 
 G. A. Petersson, H. Nakatsuji, X. Li, M. Caricato, A. V. Marenich, 
 J. Bloino, B. G. Janesko, R. Gomperts, B. Mennucci, H. P. Hratchian, 
 J. V. Ortiz, A. F. Izmaylov, J. L. Sonnenberg, D. Williams-Young, 
 F. Ding, F. Lipparini, F. Egidi, J. Goings, B. Peng, A. Petrone, 
 T. Henderson, D. Ranasinghe, V. G. Zakrzewski, J. Gao, N. Rega, 
 G. Zheng, W. Liang, M. Hada, M. Ehara, K. Toyota, R. Fukuda, 
 J. Hasegawa, M. Ishida, T. Nakajima, Y. Honda, O. Kitao, H. Nakai, 
 T. Vreven, K. Throssell, J. A. Montgomery, Jr., J. E. Peralta, 
 F. Ogliaro, M. J. Bearpark, J. J. Heyd, E. N. Brothers, K. N. Kudin, 
 V. N. Staroverov, T. A. Keith, R. Kobayashi, J. Normand, 
 K. Raghavachari, A. P. Rendell, J. C. Burant, S. S. Iyengar, 
 J. Tomasi, M. Cossi, J. M. Millam, M. Klene, C. Adamo, R. Cammi, 
 J. W. Ochterski, R. L. Martin, K. Morokuma, O. Farkas, 
 J. B. Foresman, and D. J. Fox, Gaussian, Inc., Wallingford CT, 2019.
 
 ******************************************
 Gaussian 16:  ES64L-G16RevC.01  3-Jul-2019
                 1-Nov-2023 
 ******************************************
 %chk=TSOpt_FromFrozenBoth21.chk
 %mem=8GB
 %nprocs=16
 Will use up to   16 processors via shared memory.
 ------------------------------------------------------------------
 # opt=(calcall,ts,noeigen) freq wb97xd/def2tzvpp geom=connectivity
 ------------------------------------------------------------------
 1/5=1,10=4,11=1,18=20,26=3,38=1,57=2/1,3;
 2/9=110,12=2,17=6,18=5,40=1/2;
 3/5=44,7=202,11=2,25=1,30=1,71=2,74=-58,140=1/1,2,3;
 4//1;
 5/5=2,38=5/2;
 8/6=4,10=90,11=11/1;
 11/6=1,8=1,9=11,15=111,16=1/1,2,10;
 10/6=1/2;
 6/7=2,8=2,9=2,10=2,18=1,28=1/1;
 7/10=1,25=1/1,2,3,16;
 1/5=1,10=4,11=1,18=20,26=3/3(3);
 2/9=110/2;
 7/8=1,9=1,25=1,44=-1/16;
 99//99;
 2/9=110/2;
 3/5=44,7=202,11=2,25=1,30=1,71=2,74=-58,140=1/1,2,3;
 4/5=5,16=3,69=1/1;
 5/5=2,38=5/2;
 8/6=4,10=90,11=11/1;
 11/6=1,8=1,9=11,15=111,16=1/1,2,10;
 10/6=1/2;
 7/10=1,25=1/1,2,3,16;
 1/5=1,10=4,11=1,18=20,26=3/3(-8);
 2/9=110/2;
 6/7=2,8=2,9=2,10=2,18=1,19=2,28=1/1;
 7/8=1,9=1,25=1,44=-1/16;
 99//99;
 ----------------------------------------------------------------------
 TS Opt on modredundant with bond lengths 2 point 1 A and correct imag 
 freq
 ----------------------------------------------------------------------
 Symbolic Z-matrix:
 Charge =  0 Multiplicity = 1
 Si                    1.01783  -0.0843   -0.047 
 O                     1.74844  -1.06889  -1.11539 
 H                     1.30366  -1.88704  -1.32428 
 O                     2.70831   1.00829   0.55178 
 H                     3.45655   0.60657   0.11145 
 O                     0.31477   1.29325  -0.61959 
 H                     0.97699   1.9874   -0.54062 
 O                     0.67841  -0.60958   1.45968 
 H                     1.37843  -0.30972   2.04444 
 C                    -1.92925  -1.04993   0.31433 
 H                    -1.59053  -1.58039   1.1985 
 H                    -2.70594  -1.62318  -0.1926 
 C                    -2.41053   0.35357   0.64186 
 H                    -1.71714   0.82876   1.3383 
 H                    -3.38828   0.29104   1.12186 
 O                    -0.80094  -0.986    -0.58458 
 H                    -1.10499  -0.48423  -1.35085 
 O                    -2.53946   1.10987  -0.54218 
 H                    -1.69594   1.55361  -0.68318 
 
 Add virtual bond connecting atoms O16        and Si1        Dist= 3.97D+00.
 Add virtual bond connecting atoms H19        and O6         Dist= 3.83D+00.
 Add virtual bond connecting atoms O4         and Si1        Dist= 3.97D+00.

 GradGradGradGradGradGradGradGradGradGradGradGradGradGradGradGradGradGrad
 Berny optimization.
 Initialization pass.
                           ----------------------------
                           !    Initial Parameters    !
                           ! (Angstroms and Degrees)  !
 --------------------------                            --------------------------
 ! Name  Definition              Value          Derivative Info.                !
 --------------------------------------------------------------------------------
 ! R1    R(1,2)                  1.6262         calculate D2E/DX2 analytically  !
 ! R2    R(1,4)                  2.1            calculate D2E/DX2 analytically  !
 ! R3    R(1,6)                  1.6492         calculate D2E/DX2 analytically  !
 ! R4    R(1,8)                  1.6313         calculate D2E/DX2 analytically  !
 ! R5    R(1,16)                 2.1            calculate D2E/DX2 analytically  !
 ! R6    R(2,3)                  0.9544         calculate D2E/DX2 analytically  !
 ! R7    R(4,5)                  0.9566         calculate D2E/DX2 analytically  !
 ! R8    R(6,7)                  0.9626         calculate D2E/DX2 analytically  !
 ! R9    R(6,19)                 2.0285         calculate D2E/DX2 analytically  !
 ! R10   R(8,9)                  0.9602         calculate D2E/DX2 analytically  !
 ! R11   R(10,11)                1.0853         calculate D2E/DX2 analytically  !
 ! R12   R(10,12)                1.0903         calculate D2E/DX2 analytically  !
 ! R13   R(10,13)                1.5194         calculate D2E/DX2 analytically  !
 ! R14   R(10,16)                1.444          calculate D2E/DX2 analytically  !
 ! R15   R(13,14)                1.0916         calculate D2E/DX2 analytically  !
 ! R16   R(13,15)                1.091          calculate D2E/DX2 analytically  !
 ! R17   R(13,18)                1.4109         calculate D2E/DX2 analytically  !
 ! R18   R(16,17)                0.9651         calculate D2E/DX2 analytically  !
 ! R19   R(18,19)                0.9635         calculate D2E/DX2 analytically  !
 ! A1    A(2,1,4)               98.0865         calculate D2E/DX2 analytically  !
 ! A2    A(2,1,6)              117.9792         calculate D2E/DX2 analytically  !
 ! A3    A(2,1,8)              120.351          calculate D2E/DX2 analytically  !
 ! A4    A(2,1,16)              87.7624         calculate D2E/DX2 analytically  !
 ! A5    A(4,1,6)               90.4347         calculate D2E/DX2 analytically  !
 ! A6    A(4,1,8)               94.1099         calculate D2E/DX2 analytically  !
 ! A7    A(6,1,8)              120.0616         calculate D2E/DX2 analytically  !
 ! A8    A(6,1,16)              84.2933         calculate D2E/DX2 analytically  !
 ! A9    A(8,1,16)              85.2948         calculate D2E/DX2 analytically  !
 ! A10   A(1,2,3)              116.9647         calculate D2E/DX2 analytically  !
 ! A11   A(1,4,5)              106.2549         calculate D2E/DX2 analytically  !
 ! A12   A(1,6,7)              106.2949         calculate D2E/DX2 analytically  !
 ! A13   A(1,6,19)             122.7293         calculate D2E/DX2 analytically  !
 ! A14   A(7,6,19)             126.2939         calculate D2E/DX2 analytically  !
 ! A15   A(1,8,9)              108.0736         calculate D2E/DX2 analytically  !
 ! A16   A(11,10,12)           110.1279         calculate D2E/DX2 analytically  !
 ! A17   A(11,10,13)           112.0067         calculate D2E/DX2 analytically  !
 ! A18   A(11,10,16)           106.5537         calculate D2E/DX2 analytically  !
 ! A19   A(12,10,13)           111.114          calculate D2E/DX2 analytically  !
 ! A20   A(12,10,16)           106.885          calculate D2E/DX2 analytically  !
 ! A21   A(13,10,16)           109.9248         calculate D2E/DX2 analytically  !
 ! A22   A(10,13,14)           109.7803         calculate D2E/DX2 analytically  !
 ! A23   A(10,13,15)           109.0111         calculate D2E/DX2 analytically  !
 ! A24   A(10,13,18)           110.0712         calculate D2E/DX2 analytically  !
 ! A25   A(14,13,15)           108.2716         calculate D2E/DX2 analytically  !
 ! A26   A(14,13,18)           111.1075         calculate D2E/DX2 analytically  !
 ! A27   A(15,13,18)           108.5453         calculate D2E/DX2 analytically  !
 ! A28   A(1,16,10)            122.4375         calculate D2E/DX2 analytically  !
 ! A29   A(1,16,17)            104.6467         calculate D2E/DX2 analytically  !
 ! A30   A(10,16,17)           105.7307         calculate D2E/DX2 analytically  !
 ! A31   A(13,18,19)           106.84           calculate D2E/DX2 analytically  !
 ! A32   A(6,19,18)            143.5237         calculate D2E/DX2 analytically  !
 ! A33   L(4,1,16,2,-1)        185.8489         calculate D2E/DX2 analytically  !
 ! A34   L(4,1,16,2,-2)        182.8409         calculate D2E/DX2 analytically  !
 ! D1    D(4,1,2,3)            158.2842         calculate D2E/DX2 analytically  !
 ! D2    D(6,1,2,3)           -106.8883         calculate D2E/DX2 analytically  !
 ! D3    D(8,1,2,3)             58.6661         calculate D2E/DX2 analytically  !
 ! D4    D(16,1,2,3)           -24.5567         calculate D2E/DX2 analytically  !
 ! D5    D(2,1,4,5)             -4.6026         calculate D2E/DX2 analytically  !
 ! D6    D(6,1,4,5)           -122.9589         calculate D2E/DX2 analytically  !
 ! D7    D(8,1,4,5)            116.8569         calculate D2E/DX2 analytically  !
 ! D8    D(2,1,6,7)            -93.3671         calculate D2E/DX2 analytically  !
 ! D9    D(2,1,6,19)           109.5648         calculate D2E/DX2 analytically  !
 ! D10   D(4,1,6,7)              6.0326         calculate D2E/DX2 analytically  !
 ! D11   D(4,1,6,19)          -151.0355         calculate D2E/DX2 analytically  !
 ! D12   D(8,1,6,7)            101.0352         calculate D2E/DX2 analytically  !
 ! D13   D(8,1,6,19)           -56.0329         calculate D2E/DX2 analytically  !
 ! D14   D(16,1,6,7)          -177.7707         calculate D2E/DX2 analytically  !
 ! D15   D(16,1,6,19)           25.1612         calculate D2E/DX2 analytically  !
 ! D16   D(2,1,8,9)             97.3458         calculate D2E/DX2 analytically  !
 ! D17   D(4,1,8,9)             -4.5132         calculate D2E/DX2 analytically  !
 ! D18   D(6,1,8,9)            -97.4007         calculate D2E/DX2 analytically  !
 ! D19   D(16,1,8,9)          -178.0245         calculate D2E/DX2 analytically  !
 ! D20   D(2,1,16,10)          153.411          calculate D2E/DX2 analytically  !
 ! D21   D(2,1,16,17)          -86.713          calculate D2E/DX2 analytically  !
 ! D22   D(6,1,16,10)          -88.1807         calculate D2E/DX2 analytically  !
 ! D23   D(6,1,16,17)           31.6954         calculate D2E/DX2 analytically  !
 ! D24   D(8,1,16,10)           32.7067         calculate D2E/DX2 analytically  !
 ! D25   D(8,1,16,17)          152.5828         calculate D2E/DX2 analytically  !
 ! D26   D(1,6,19,18)           -6.3447         calculate D2E/DX2 analytically  !
 ! D27   D(7,6,19,18)         -158.6987         calculate D2E/DX2 analytically  !
 ! D28   D(11,10,13,14)         43.5756         calculate D2E/DX2 analytically  !
 ! D29   D(11,10,13,15)        -74.8693         calculate D2E/DX2 analytically  !
 ! D30   D(11,10,13,18)        166.1808         calculate D2E/DX2 analytically  !
 ! D31   D(12,10,13,14)        167.2131         calculate D2E/DX2 analytically  !
 ! D32   D(12,10,13,15)         48.7682         calculate D2E/DX2 analytically  !
 ! D33   D(12,10,13,18)        -70.1817         calculate D2E/DX2 analytically  !
 ! D34   D(16,10,13,14)        -74.6779         calculate D2E/DX2 analytically  !
 ! D35   D(16,10,13,15)        166.8773         calculate D2E/DX2 analytically  !
 ! D36   D(16,10,13,18)         47.9273         calculate D2E/DX2 analytically  !
 ! D37   D(11,10,16,1)         -58.5741         calculate D2E/DX2 analytically  !
 ! D38   D(11,10,16,17)       -177.9325         calculate D2E/DX2 analytically  !
 ! D39   D(12,10,16,1)        -176.3096         calculate D2E/DX2 analytically  !
 ! D40   D(12,10,16,17)         64.332          calculate D2E/DX2 analytically  !
 ! D41   D(13,10,16,1)          62.9966         calculate D2E/DX2 analytically  !
 ! D42   D(13,10,16,17)        -56.3618         calculate D2E/DX2 analytically  !
 ! D43   D(10,13,18,19)        -91.0926         calculate D2E/DX2 analytically  !
 ! D44   D(14,13,18,19)         30.7273         calculate D2E/DX2 analytically  !
 ! D45   D(15,13,18,19)        149.6728         calculate D2E/DX2 analytically  !
 ! D46   D(13,18,19,6)          42.6285         calculate D2E/DX2 analytically  !
 --------------------------------------------------------------------------------
 Trust Radius=3.00D-01 FncErr=1.00D-07 GrdErr=1.00D-06 EigMax=2.50D+02 EigMin=1.00D-04
 Number of steps in this run=    109 maximum allowed number of steps=    114.
 Search for a saddle point of order  1.
 GradGradGradGradGradGradGradGradGradGradGradGradGradGradGradGradGradGrad

                          Input orientation:                          
 ---------------------------------------------------------------------
 Center     Atomic      Atomic             Coordinates (Angstroms)
 Number     Number       Type             X           Y           Z
 ---------------------------------------------------------------------
      1         14           0        1.017831   -0.084298   -0.047002
      2          8           0        1.748439   -1.068887   -1.115387
      3          1           0        1.303658   -1.887039   -1.324281
      4          8           0        2.708311    1.008286    0.551778
      5          1           0        3.456549    0.606573    0.111449
      6          8           0        0.314770    1.293251   -0.619586
      7          1           0        0.976988    1.987398   -0.540616
      8          8           0        0.678414   -0.609582    1.459682
      9          1           0        1.378433   -0.309716    2.044440
     10          6           0       -1.929253   -1.049930    0.314332
     11          1           0       -1.590532   -1.580386    1.198500
     12          1           0       -2.705942   -1.623179   -0.192596
     13          6           0       -2.410530    0.353574    0.641862
     14          1           0       -1.717137    0.828756    1.338300
     15          1           0       -3.388284    0.291036    1.121862
     16          8           0       -0.800942   -0.986004   -0.584580
     17          1           0       -1.104985   -0.484231   -1.350849
     18          8           0       -2.539458    1.109871   -0.542177
     19          1           0       -1.695943    1.553614   -0.683184
 ---------------------------------------------------------------------
                    Distance matrix (angstroms):
                    1          2          3          4          5
     1  Si   0.000000
     2  O    1.626238   0.000000
     3  H    2.227782   0.954379   0.000000
     4  O    2.100000   2.831155   3.724991   0.000000
     5  H    2.539637   2.688853   3.593656   0.956621   0.000000
     6  O    1.649178   2.807298   3.404224   2.679988   3.297986
     7  H    2.130082   3.204119   3.966372   2.269243   2.912059
     8  O    1.631326   2.826110   3.126224   2.749958   3.318855
     9  H    2.134239   3.270742   3.720460   2.394524   2.982383
    10  C    3.122229   3.945868   3.719881   5.079334   5.638442
    11  H    3.254706   4.094439   3.851597   5.059597   5.606915
    12  H    4.031853   4.582608   4.174593   6.065710   6.560528
    13  C    3.524191   4.733745   4.762484   5.161327   5.896436
    14  H    3.198872   4.651005   4.856962   4.498382   5.321800
    15  H    4.573944   5.765466   5.722058   6.165056   6.926199
    16  O    2.100000   2.605373   2.405902   4.193252   4.598585
    17  H    2.523155   2.922207   2.787497   4.515398   4.912816
    18  O    3.784910   4.843719   4.935858   5.361542   6.052490
    19  H    3.232963   4.350641   4.609415   4.606514   5.298726
                    6          7          8          9         10
     6  O    0.000000
     7  H    0.962605   0.000000
     8  O    2.841895   3.291602   0.000000
     9  H    3.286018   3.481437   0.960150   0.000000
    10  C    3.376143   4.289818   2.881954   3.805519   0.000000
    11  H    3.897871   4.727131   2.481691   3.338408   1.085297
    12  H    4.220496   5.169271   3.900162   4.838557   1.090338
    13  C    3.146666   3.942450   3.337375   4.094315   1.519450
    14  H    2.859671   3.482971   2.796822   3.373026   2.150108
    15  H    4.213037   4.969615   4.178907   4.892202   2.139875
    16  O    2.537921   3.464692   2.551312   3.481205   1.444027
    17  H    2.389538   3.331672   3.330962   4.210203   1.942231
    18  O    2.861160   3.624286   4.161569   4.904659   2.402228
    19  H    2.028497   2.711652   3.861200   4.512618   2.797841
                   11         12         13         14         15
    11  H    0.000000
    12  H    1.783569   0.000000
    13  C    2.173118   2.165904   0.000000
    14  H    2.416514   3.055055   1.091612   0.000000
    15  H    2.596152   2.420250   1.091015   1.768819   0.000000
    16  O    2.038656   2.046624   2.426809   2.798256   3.352180
    17  H    2.817178   2.280749   2.525324   3.054536   3.453808
    18  O    3.341841   2.760342   1.410871   2.071577   2.039613
    19  H    3.657021   3.369390   1.925221   2.147619   2.777825
                   16         17         18         19
    16  O    0.000000
    17  H    0.965084   0.000000
    18  O    2.723404   2.291904   0.000000
    19  H    2.694515   2.224370   0.963488   0.000000
 Stoichiometry    C2H10O6Si
 Framework group  C1[X(C2H10O6Si)]
 Deg. of freedom    51
 Full point group                 C1      NOp   1
 Largest Abelian subgroup         C1      NOp   1
 Largest concise Abelian subgroup C1      NOp   1
                         Standard orientation:                         
 ---------------------------------------------------------------------
 Center     Atomic      Atomic             Coordinates (Angstroms)
 Number     Number       Type             X           Y           Z
 ---------------------------------------------------------------------
      1         14           0        1.017831   -0.084298   -0.047002
      2          8           0        1.748439   -1.068887   -1.115387
      3          1           0        1.303658   -1.887039   -1.324281
      4          8           0        2.708311    1.008286    0.551778
      5          1           0        3.456549    0.606574    0.111449
      6          8           0        0.314770    1.293251   -0.619586
      7          1           0        0.976988    1.987398   -0.540616
      8          8           0        0.678414   -0.609582    1.459682
      9          1           0        1.378433   -0.309716    2.044440
     10          6           0       -1.929253   -1.049930    0.314332
     11          1           0       -1.590532   -1.580386    1.198500
     12          1           0       -2.705942   -1.623179   -0.192596
     13          6           0       -2.410530    0.353574    0.641862
     14          1           0       -1.717137    0.828756    1.338300
     15          1           0       -3.388284    0.291035    1.121862
     16          8           0       -0.800942   -0.986004   -0.584580
     17          1           0       -1.104985   -0.484231   -1.350849
     18          8           0       -2.539458    1.109871   -0.542177
     19          1           0       -1.695943    1.553614   -0.683184
 ---------------------------------------------------------------------
 Rotational constants (GHZ):           2.2119858           0.8842376           0.8269602
 Standard basis: def2TZVPP (5D, 7F)
 There are   486 symmetry adapted cartesian basis functions of A   symmetry.
 There are   430 symmetry adapted basis functions of A   symmetry.
   430 basis functions,   647 primitive gaussians,   486 cartesian basis functions
    42 alpha electrons       42 beta electrons
       nuclear repulsion energy       655.6104924190 Hartrees.
 NAtoms=   19 NActive=   19 NUniq=   19 SFac= 1.00D+00 NAtFMM=   60 NAOKFM=F Big=F
 Integral buffers will be    131072 words long.
 Raffenetti 2 integral format.
 Two-electron integral symmetry is turned on.
 Nuclear repulsion after empirical dispersion term =      655.5997499490 Hartrees.
 One-electron integrals computed using PRISM.
   1 Symmetry operations used in ECPInt.
 ECPInt:  NShTT=   13203 NPrTT=   36019 LenC2=   12629 LenP2D=   27110.
 LDataN:  DoStor=T MaxTD1= 6 Len=  172
 NBasis=   430 RedAO= T EigKep=  2.02D-04  NBF=   430
 NBsUse=   430 1.00D-06 EigRej= -1.00D+00 NBFU=   430
 ExpMin= 7.01D-02 ExpMax= 4.48D+04 ExpMxC= 1.53D+03 IAcc=3 IRadAn=         5 AccDes= 0.00D+00
 Harris functional with IExCor= 4639 and IRadAn=       5 diagonalized for initial guess.
 HarFok:  IExCor= 4639 AccDes= 0.00D+00 IRadAn=         5 IDoV= 1 UseB2=F ITyADJ=14
 ICtDFT=  3500011 ScaDFX=  1.000000  1.000000  1.000000  1.000000
 FoFCou: FMM=F IPFlag=           0 FMFlag=      100000 FMFlg1=           0
         NFxFlg=           0 DoJE=T BraDBF=F KetDBF=T FulRan=T
         wScrn=  0.000000 ICntrl=       500 IOpCl=  0 I1Cent=   200000004 NGrid=           0
         NMat0=    1 NMatS0=      1 NMatT0=    0 NMatD0=    1 NMtDS0=    0 NMtDT0=    0
 Petite list used in FoFCou.
 Requested convergence on RMS density matrix=1.00D-08 within 128 cycles.
 Requested convergence on MAX density matrix=1.00D-06.
 Requested convergence on             energy=1.00D-06.
 No special actions if energy rises.
 Integral accuracy reduced to 1.0D-05 until final iterations.
 Initial convergence to 1.0D-05 achieved.  Increase integral accuracy.
 SCF Done:  E(RwB97XD) =  -823.320625857     A.U. after   13 cycles
            NFock= 13  Conv=0.95D-08     -V/T= 2.0038
 DoSCS=F DFT=T ScalE2(SS,OS)=  1.000000  1.000000
 Range of M.O.s used for correlation:     1   430
 NBasis=   430 NAE=    42 NBE=    42 NFC=     0 NFV=     0
 NROrb=    430 NOA=    42 NOB=    42 NVA=   388 NVB=   388

 **** Warning!!: The largest alpha MO coefficient is  0.11532770D+02

   1 Symmetry operations used in ECPInt.
 ECPInt:  NShTT=   13203 NPrTT=   36019 LenC2=   12629 LenP2D=   27110.
 LDataN:  DoStor=T MaxTD1= 7 Len=  274
 Number of processors reduced to  12 by ecpmxn.
 Symmetrizing basis deriv contribution to polar:
 IMax=3 JMax=2 DiffMx= 0.00D+00
 G2DrvN: will do    20 centers at a time, making    1 passes.
 Calling FoFCou, ICntrl=  3107 FMM=F I1Cent=   0 AccDes= 0.00D+00.
 End of G2Drv F.D. properties file   721 does not exist.
 End of G2Drv F.D. properties file   722 does not exist.
 End of G2Drv F.D. properties file   788 does not exist.
          IDoAtm=1111111111111111111
          Differentiating once with respect to electric field.
                with respect to dipole field.
          Differentiating once with respect to nuclear coordinates.
 CalDSu exits because no D1Ps are significant.
          There are    60 degrees of freedom in the 1st order CPHF.  IDoFFX=6 NUNeed=     3.
     57 vectors produced by pass  0 Test12= 2.72D-14 1.67D-09 XBig12= 2.59D+01 9.58D-01.
 AX will form    57 AO Fock derivatives at one time.
     57 vectors produced by pass  1 Test12= 2.72D-14 1.67D-09 XBig12= 1.84D+00 2.06D-01.
     57 vectors produced by pass  2 Test12= 2.72D-14 1.67D-09 XBig12= 5.41D-02 4.81D-02.
     57 vectors produced by pass  3 Test12= 2.72D-14 1.67D-09 XBig12= 6.44D-04 4.08D-03.
     57 vectors produced by pass  4 Test12= 2.72D-14 1.67D-09 XBig12= 6.58D-06 2.88D-04.
     57 vectors produced by pass  5 Test12= 2.72D-14 1.67D-09 XBig12= 4.84D-08 1.94D-05.
     57 vectors produced by pass  6 Test12= 2.72D-14 1.67D-09 XBig12= 3.54D-10 1.83D-06.
     18 vectors produced by pass  7 Test12= 2.72D-14 1.67D-09 XBig12= 2.19D-12 1.39D-07.
      3 vectors produced by pass  8 Test12= 2.72D-14 1.67D-09 XBig12= 1.25D-14 1.19D-08.
 InvSVY:  IOpt=1 It=  1 EMax= 4.44D-15
 Solved reduced A of dimension   420 with    60 vectors.
 Isotropic polarizability for W=    0.000000       73.12 Bohr**3.
 End of Minotr F.D. properties file   721 does not exist.
 End of Minotr F.D. properties file   722 does not exist.
 End of Minotr F.D. properties file   788 does not exist.

 **********************************************************************

            Population analysis using the SCF Density.

 **********************************************************************

 Orbital symmetries:
       Occupied  (A) (A) (A) (A) (A) (A) (A) (A) (A) (A) (A) (A)
                 (A) (A) (A) (A) (A) (A) (A) (A) (A) (A) (A) (A)
                 (A) (A) (A) (A) (A) (A) (A) (A) (A) (A) (A) (A)
                 (A) (A) (A) (A) (A) (A)
       Virtual   (A) (A) (A) (A) (A) (A) (A) (A) (A) (A) (A) (A)
                 (A) (A) (A) (A) (A) (A) (A) (A) (A) (A) (A) (A)
                 (A) (A) (A) (A) (A) (A) (A) (A) (A) (A) (A) (A)
                 (A) (A) (A) (A) (A) (A) (A) (A) (A) (A) (A) (A)
                 (A) (A) (A) (A) (A) (A) (A) (A) (A) (A) (A) (A)
                 (A) (A) (A) (A) (A) (A) (A) (A) (A) (A) (A) (A)
                 (A) (A) (A) (A) (A) (A) (A) (A) (A) (A) (A) (A)
                 (A) (A) (A) (A) (A) (A) (A) (A) (A) (A) (A) (A)
                 (A) (A) (A) (A) (A) (A) (A) (A) (A) (A) (A) (A)
                 (A) (A) (A) (A) (A) (A) (A) (A) (A) (A) (A) (A)
                 (A) (A) (A) (A) (A) (A) (A) (A) (A) (A) (A) (A)
                 (A) (A) (A) (A) (A) (A) (A) (A) (A) (A) (A) (A)
                 (A) (A) (A) (A) (A) (A) (A) (A) (A) (A) (A) (A)
                 (A) (A) (A) (A) (A) (A) (A) (A) (A) (A) (A) (A)
                 (A) (A) (A) (A) (A) (A) (A) (A) (A) (A) (A) (A)
                 (A) (A) (A) (A) (A) (A) (A) (A) (A) (A) (A) (A)
                 (A) (A) (A) (A) (A) (A) (A) (A) (A) (A) (A) (A)
                 (A) (A) (A) (A) (A) (A) (A) (A) (A) (A) (A) (A)
                 (A) (A) (A) (A) (A) (A) (A) (A) (A) (A) (A) (A)
                 (A) (A) (A) (A) (A) (A) (A) (A) (A) (A) (A) (A)
                 (A) (A) (A) (A) (A) (A) (A) (A) (A) (A) (A) (A)
                 (A) (A) (A) (A) (A) (A) (A) (A) (A) (A) (A) (A)
                 (A) (A) (A) (A) (A) (A) (A) (A) (A) (A) (A) (A)
                 (A) (A) (A) (A) (A) (A) (A) (A) (A) (A) (A) (A)
                 (A) (A) (A) (A) (A) (A) (A) (A) (A) (A) (A) (A)
                 (A) (A) (A) (A) (A) (A) (A) (A) (A) (A) (A) (A)
                 (A) (A) (A) (A) (A) (A) (A) (A) (A) (A) (A) (A)
                 (A) (A) (A) (A) (A) (A) (A) (A) (A) (A) (A) (A)
                 (A) (A) (A) (A) (A) (A) (A) (A) (A) (A) (A) (A)
                 (A) (A) (A) (A) (A) (A) (A) (A) (A) (A) (A) (A)
                 (A) (A) (A) (A) (A) (A) (A) (A) (A) (A) (A) (A)
                 (A) (A) (A) (A) (A) (A) (A) (A) (A) (A) (A) (A)
                 (A) (A) (A) (A)
 The electronic state is 1-A.
 Alpha  occ. eigenvalues --  -66.34046 -19.32831 -19.26265 -19.26086 -19.25960
 Alpha  occ. eigenvalues --  -19.25591 -19.18253 -10.36098 -10.34546  -5.45180
 Alpha  occ. eigenvalues --   -3.79906  -3.79585  -3.79576  -1.20336  -1.13862
 Alpha  occ. eigenvalues --   -1.13325  -1.11231  -1.10957  -0.99910  -0.86915
 Alpha  occ. eigenvalues --   -0.74999  -0.68803  -0.65326  -0.63686  -0.61597
 Alpha  occ. eigenvalues --   -0.59995  -0.59237  -0.55439  -0.53754  -0.51927
 Alpha  occ. eigenvalues --   -0.51540  -0.48594  -0.47013  -0.46037  -0.44908
 Alpha  occ. eigenvalues --   -0.44863  -0.44353  -0.42557  -0.40976  -0.38091
 Alpha  occ. eigenvalues --   -0.36120  -0.33469
 Alpha virt. eigenvalues --    0.07597   0.11751   0.12708   0.12849   0.14999
 Alpha virt. eigenvalues --    0.15672   0.17238   0.17567   0.18089   0.18962
 Alpha virt. eigenvalues --    0.20994   0.22146   0.23171   0.23584   0.24826
 Alpha virt. eigenvalues --    0.25404   0.26494   0.28407   0.31287   0.31988
 Alpha virt. eigenvalues --    0.33366   0.33408   0.35695   0.36669   0.38092
 Alpha virt. eigenvalues --    0.39745   0.40604   0.41911   0.42985   0.43743
 Alpha virt. eigenvalues --    0.44893   0.45690   0.46583   0.48886   0.49849
 Alpha virt. eigenvalues --    0.50044   0.51055   0.52257   0.52852   0.53865
 Alpha virt. eigenvalues --    0.54680   0.56777   0.57069   0.58739   0.58944
 Alpha virt. eigenvalues --    0.59638   0.61331   0.62151   0.62917   0.64900
 Alpha virt. eigenvalues --    0.65990   0.66409   0.66532   0.68150   0.69929
 Alpha virt. eigenvalues --    0.70691   0.71657   0.72479   0.73269   0.75360
 Alpha virt. eigenvalues --    0.77981   0.79781   0.81051   0.82275   0.82718
 Alpha virt. eigenvalues --    0.84263   0.85639   0.87825   0.89780   0.90492
 Alpha virt. eigenvalues --    0.91682   0.92770   0.93577   0.94834   0.95940
 Alpha virt. eigenvalues --    0.98047   0.99689   1.01851   1.04065   1.05490
 Alpha virt. eigenvalues --    1.07033   1.07610   1.09347   1.10585   1.11669
 Alpha virt. eigenvalues --    1.12216   1.14968   1.15944   1.16354   1.17818
 Alpha virt. eigenvalues --    1.19526   1.19862   1.22130   1.24144   1.26162
 Alpha virt. eigenvalues --    1.27064   1.28332   1.30103   1.30277   1.30490
 Alpha virt. eigenvalues --    1.32895   1.36666   1.37846   1.39226   1.39693
 Alpha virt. eigenvalues --    1.40886   1.43074   1.44580   1.46708   1.47277
 Alpha virt. eigenvalues --    1.48641   1.49995   1.50397   1.52126   1.54955
 Alpha virt. eigenvalues --    1.56856   1.57630   1.61486   1.62843   1.65326
 Alpha virt. eigenvalues --    1.65842   1.70256   1.73769   1.76133   1.77761
 Alpha virt. eigenvalues --    1.82931   1.84432   1.87660   1.89834   1.91673
 Alpha virt. eigenvalues --    1.92920   1.94173   1.95565   1.96457   1.97794
 Alpha virt. eigenvalues --    1.98016   2.02278   2.02717   2.03492   2.05755
 Alpha virt. eigenvalues --    2.05964   2.07660   2.08987   2.11995   2.12806
 Alpha virt. eigenvalues --    2.15338   2.16808   2.18013   2.20206   2.21694
 Alpha virt. eigenvalues --    2.24999   2.26296   2.28202   2.29935   2.30883
 Alpha virt. eigenvalues --    2.33976   2.36876   2.40033   2.41350   2.46839
 Alpha virt. eigenvalues --    2.52904   2.54265   2.57122   2.59830   2.63132
 Alpha virt. eigenvalues --    2.65124   2.66514   2.70826   2.72858   2.75434
 Alpha virt. eigenvalues --    2.76130   2.77047   2.79985   2.80551   2.84147
 Alpha virt. eigenvalues --    2.84719   2.89383   2.92096   2.92464   2.95415
 Alpha virt. eigenvalues --    2.97429   3.00672   3.02151   3.05156   3.06595
 Alpha virt. eigenvalues --    3.07857   3.10642   3.11455   3.13983   3.15707
 Alpha virt. eigenvalues --    3.18314   3.19994   3.20418   3.21595   3.23648
 Alpha virt. eigenvalues --    3.24951   3.29178   3.31422   3.32588   3.33634
 Alpha virt. eigenvalues --    3.34560   3.36144   3.38080   3.39017   3.39480
 Alpha virt. eigenvalues --    3.42243   3.42345   3.43550   3.44921   3.46418
 Alpha virt. eigenvalues --    3.47689   3.48667   3.50299   3.50481   3.53659
 Alpha virt. eigenvalues --    3.55256   3.57629   3.60484   3.61524   3.63945
 Alpha virt. eigenvalues --    3.65372   3.68225   3.68808   3.71173   3.72040
 Alpha virt. eigenvalues --    3.74097   3.74657   3.77659   3.78825   3.80490
 Alpha virt. eigenvalues --    3.81877   3.84127   3.85942   3.86288   3.86529
 Alpha virt. eigenvalues --    3.91186   3.93773   3.96670   3.98677   3.99472
 Alpha virt. eigenvalues --    4.01361   4.02618   4.04390   4.05220   4.06148
 Alpha virt. eigenvalues --    4.08002   4.10206   4.10302   4.11854   4.13498
 Alpha virt. eigenvalues --    4.14790   4.15475   4.16652   4.17271   4.19199
 Alpha virt. eigenvalues --    4.22446   4.23613   4.24880   4.25299   4.28002
 Alpha virt. eigenvalues --    4.29300   4.29765   4.32071   4.34125   4.35755
 Alpha virt. eigenvalues --    4.36837   4.37176   4.39864   4.41992   4.44732
 Alpha virt. eigenvalues --    4.46452   4.50024   4.55854   4.62048   4.67244
 Alpha virt. eigenvalues --    4.68644   4.69797   4.74290   4.75215   4.77885
 Alpha virt. eigenvalues --    4.82046   4.83149   4.86380   4.88027   4.93614
 Alpha virt. eigenvalues --    4.95543   4.98502   5.02137   5.03926   5.04675
 Alpha virt. eigenvalues --    5.06443   5.07871   5.08751   5.13429   5.16138
 Alpha virt. eigenvalues --    5.20406   5.25919   5.27384   5.28967   5.35383
 Alpha virt. eigenvalues --    5.36695   5.39110   5.39491   5.41544   5.43055
 Alpha virt. eigenvalues --    5.43419   5.45207   5.48434   5.51226   5.53297
 Alpha virt. eigenvalues --    5.55901   5.56262   5.56707   5.59943   5.61797
 Alpha virt. eigenvalues --    5.62107   5.66944   5.67754   5.71926   5.73717
 Alpha virt. eigenvalues --    5.73922   5.76919   5.82720   5.87232   5.94755
 Alpha virt. eigenvalues --    6.02606   6.13615   6.17426   6.47683   6.49475
 Alpha virt. eigenvalues --    6.52458   6.53031   6.55050   6.56765   6.57263
 Alpha virt. eigenvalues --    6.58588   6.61864   6.62891   6.65381   6.66832
 Alpha virt. eigenvalues --    6.69185   6.70058   6.70861   6.72030   6.74789
 Alpha virt. eigenvalues --    6.75192   6.76102   6.77427   6.78292   6.78994
 Alpha virt. eigenvalues --    6.80792   6.82345   6.83221   6.84348   6.84552
 Alpha virt. eigenvalues --    6.87075   6.88851   6.92722   6.95414   7.00164
 Alpha virt. eigenvalues --    7.02107   7.02999   7.12671   7.14811   7.17604
 Alpha virt. eigenvalues --    7.27945   7.29321   7.32973   7.36159   7.37522
 Alpha virt. eigenvalues --    7.39591   7.44584   7.49650   7.53877   7.56548
 Alpha virt. eigenvalues --    7.59856   7.64277   7.78009   7.79721  12.61503
 Alpha virt. eigenvalues --   23.39373  23.47248  43.74953  43.90021  43.91232
 Alpha virt. eigenvalues --   44.10585  44.14195  44.18406
          Condensed to atoms (all electrons):
               1          2          3          4          5          6
     1  Si  11.480502   0.446400  -0.015944   0.312775  -0.023407   0.381293
     2  O    0.446400   7.671351   0.329824  -0.020420   0.000468  -0.019606
     3  H   -0.015944   0.329824   0.504562   0.001344  -0.000358   0.000611
     4  O    0.312775  -0.020420   0.001344   8.088429   0.307622  -0.042466
     5  H   -0.023407   0.000468  -0.000358   0.307622   0.536525   0.002354
     6  O    0.381293  -0.019606   0.000611  -0.042466   0.002354   7.825036
     7  H   -0.013891  -0.000164  -0.000098   0.020766  -0.000813   0.330280
     8  O    0.415018  -0.021081  -0.000878  -0.033924   0.001450  -0.022233
     9  H   -0.014277  -0.000179  -0.000133   0.014822  -0.000403   0.000023
    10  C   -0.006364   0.001651   0.000403  -0.000170   0.000014  -0.000618
    11  H   -0.008696   0.000127  -0.000071   0.000054  -0.000008   0.000244
    12  H    0.002691  -0.000114  -0.000129   0.000003  -0.000000  -0.000127
    13  C   -0.003170  -0.000201   0.000097   0.000023  -0.000014  -0.001687
    14  H   -0.002007  -0.000101  -0.000020   0.000041   0.000002   0.000592
    15  H    0.000272   0.000001  -0.000002  -0.000000   0.000000   0.000201
    16  O    0.186118  -0.028711   0.003928   0.000101   0.000042  -0.027392
    17  H   -0.017838   0.002566  -0.000139  -0.000038  -0.000037   0.003198
    18  O   -0.002826  -0.000011  -0.000006  -0.000007   0.000001  -0.015003
    19  H   -0.000978  -0.000038  -0.000001   0.000080  -0.000005   0.028693
               7          8          9         10         11         12
     1  Si  -0.013891   0.415018  -0.014277  -0.006364  -0.008696   0.002691
     2  O   -0.000164  -0.021081  -0.000179   0.001651   0.000127  -0.000114
     3  H   -0.000098  -0.000878  -0.000133   0.000403  -0.000071  -0.000129
     4  O    0.020766  -0.033924   0.014822  -0.000170   0.000054   0.000003
     5  H   -0.000813   0.001450  -0.000403   0.000014  -0.000008  -0.000000
     6  O    0.330280  -0.022233   0.000023  -0.000618   0.000244  -0.000127
     7  H    0.445286  -0.000194  -0.000348   0.000135  -0.000016   0.000023
     8  O   -0.000194   7.738568   0.333297   0.004907   0.007861   0.000763
     9  H   -0.000348   0.333297   0.465046  -0.002423  -0.000024  -0.000008
    10  C    0.000135   0.004907  -0.002423   4.916930   0.410523   0.413527
    11  H   -0.000016   0.007861  -0.000024   0.410523   0.536609  -0.016383
    12  H    0.000023   0.000763  -0.000008   0.413527  -0.016383   0.548591
    13  C   -0.000237  -0.017941   0.001622   0.261669  -0.021311  -0.029015
    14  H    0.000233   0.009781  -0.000538  -0.059190  -0.000597   0.006696
    15  H    0.000001  -0.000023  -0.000001  -0.041533   0.003008  -0.007212
    16  O    0.002024  -0.026799   0.001793   0.191953  -0.023702  -0.029481
    17  H   -0.000424   0.001585  -0.000041  -0.034951   0.008213  -0.005173
    18  O    0.000487   0.000220   0.000006  -0.066555   0.004309   0.003286
    19  H   -0.001019   0.000093  -0.000027   0.001590  -0.000582  -0.000754
              13         14         15         16         17         18
     1  Si  -0.003170  -0.002007   0.000272   0.186118  -0.017838  -0.002826
     2  O   -0.000201  -0.000101   0.000001  -0.028711   0.002566  -0.000011
     3  H    0.000097  -0.000020  -0.000002   0.003928  -0.000139  -0.000006
     4  O    0.000023   0.000041  -0.000000   0.000101  -0.000038  -0.000007
     5  H   -0.000014   0.000002   0.000000   0.000042  -0.000037   0.000001
     6  O   -0.001687   0.000592   0.000201  -0.027392   0.003198  -0.015003
     7  H   -0.000237   0.000233   0.000001   0.002024  -0.000424   0.000487
     8  O   -0.017941   0.009781  -0.000023  -0.026799   0.001585   0.000220
     9  H    0.001622  -0.000538  -0.000001   0.001793  -0.000041   0.000006
    10  C    0.261669  -0.059190  -0.041533   0.191953  -0.034951  -0.066555
    11  H   -0.021311  -0.000597   0.003008  -0.023702   0.008213   0.004309
    12  H   -0.029015   0.006696  -0.007212  -0.029481  -0.005173   0.003286
    13  C    4.735516   0.442051   0.426941  -0.039268  -0.009525   0.251720
    14  H    0.442051   0.578882  -0.022498  -0.000749   0.001811  -0.039823
    15  H    0.426941  -0.022498   0.573150   0.003591   0.000736  -0.027253
    16  O   -0.039268  -0.000749   0.003591   7.760589   0.312266  -0.006978
    17  H   -0.009525   0.001811   0.000736   0.312266   0.504155   0.034104
    18  O    0.251720  -0.039823  -0.027253  -0.006978   0.034104   7.921189
    19  H   -0.034722  -0.012512   0.005207   0.001552  -0.001993   0.338667
              19
     1  Si  -0.000978
     2  O   -0.000038
     3  H   -0.000001
     4  O    0.000080
     5  H   -0.000005
     6  O    0.028693
     7  H   -0.001019
     8  O    0.000093
     9  H   -0.000027
    10  C    0.001590
    11  H   -0.000582
    12  H   -0.000754
    13  C   -0.034722
    14  H   -0.012512
    15  H    0.005207
    16  O    0.001552
    17  H   -0.001993
    18  O    0.338667
    19  H    0.457458
 Mulliken charges:
               1
     1  Si   0.884329
     2  O   -0.361763
     3  H    0.177009
     4  O   -0.649035
     5  H    0.176568
     6  O   -0.443391
     7  H    0.217970
     8  O   -0.390471
     9  H    0.201792
    10  C    0.008504
    11  H    0.100446
    12  H    0.112818
    13  C    0.037452
    14  H    0.097946
    15  H    0.085413
    16  O   -0.280876
    17  H    0.201526
    18  O   -0.395527
    19  H    0.219291
 Sum of Mulliken charges =  -0.00000
 Mulliken charges with hydrogens summed into heavy atoms:
               1
     1  Si   0.884329
     2  O   -0.184754
     4  O   -0.472468
     6  O   -0.225421
     8  O   -0.188679
    10  C    0.221768
    13  C    0.220811
    16  O   -0.079350
    18  O   -0.176236
 APT charges:
               1
     1  Si   2.343230
     2  O   -0.882021
     3  H    0.306779
     4  O   -0.865020
     5  H    0.198114
     6  O   -0.906013
     7  H    0.324519
     8  O   -0.863439
     9  H    0.320183
    10  C    0.412021
    11  H    0.034755
    12  H   -0.032405
    13  C    0.392689
    14  H   -0.011597
    15  H   -0.013979
    16  O   -0.761540
    17  H    0.310043
    18  O   -0.648965
    19  H    0.342646
 Sum of APT charges =   0.00000
 APT charges with hydrogens summed into heavy atoms:
               1
     1  Si   2.343230
     2  O   -0.575242
     4  O   -0.666906
     6  O   -0.581494
     8  O   -0.543256
    10  C    0.414371
    13  C    0.367113
    16  O   -0.451497
    18  O   -0.306320
 Electronic spatial extent (au):  <R**2>=           1528.0552
 Charge=             -0.0000 electrons
 Dipole moment (field-independent basis, Debye):
    X=             -2.7624    Y=             -2.5981    Z=             -0.3477  Tot=              3.8082
 Quadrupole moment (field-independent basis, Debye-Ang):
   XX=            -66.4638   YY=            -57.9530   ZZ=            -58.0989
   XY=              0.9722   XZ=             -3.8744   YZ=              0.6843
 Traceless Quadrupole moment (field-independent basis, Debye-Ang):
   XX=             -5.6252   YY=              2.8856   ZZ=              2.7397
   XY=              0.9722   XZ=             -3.8744   YZ=              0.6843
 Octapole moment (field-independent basis, Debye-Ang**2):
  XXX=              2.3898  YYY=             -2.2029  ZZZ=              0.1799  XYY=              0.5133
  XXY=            -25.6207  XXZ=              6.0251  XZZ=             -0.8750  YZZ=             -3.7838
  YYZ=            -10.3997  XYZ=             -8.4423
 Hexadecapole moment (field-independent basis, Debye-Ang**3):
 XXXX=          -1199.5582 YYYY=           -327.6417 ZZZZ=           -251.9924 XXXY=             14.8144
 XXXZ=            -50.7103 YYYX=            -11.5363 YYYZ=              3.4255 ZZZX=             24.6860
 ZZZY=              5.1494 XXYY=           -288.3128 XXZZ=           -249.9360 YYZZ=           -101.0824
 XXYZ=            -10.8168 YYXZ=            -15.6609 ZZXY=             -5.3515
 N-N= 6.555997499490D+02 E-N=-3.259540618865D+03  KE= 8.202425855082D+02
  Exact polarizability:      83.638       3.307      69.321      -0.680       0.153      66.405
 Approx polarizability:      79.861       3.384      74.239       0.108      -0.130      73.802
   1 Symmetry operations used in ECPInt.
 ECPInt:  NShTT=   13203 NPrTT=   36019 LenC2=   12629 LenP2D=   27110.
 LDataN:  DoStor=T MaxTD1= 8 Len=  415
 Calling FoFJK, ICntrl=    100127 FMM=F ISym2X=0 I1Cent= 0 IOpClX= 0 NMat=1 NMatS=1 NMatT=0.
 ***** Axes restored to original set *****
 -------------------------------------------------------------------
 Center     Atomic                   Forces (Hartrees/Bohr)
 Number     Number              X              Y              Z
 -------------------------------------------------------------------
      1       14           0.052164245    0.034111202    0.018637605
      2        8           0.000007099   -0.000002728   -0.000005370
      3        1           0.000001675   -0.000001331    0.000003496
      4        8          -0.054883831   -0.035472880   -0.019443852
      5        1           0.000000474    0.000003949    0.000000514
      6        8          -0.000004340    0.000008920   -0.000009356
      7        1          -0.000003278    0.000001998   -0.000003311
      8        8           0.000000822    0.000001269    0.000009687
      9        1          -0.000000925    0.000002400    0.000000564
     10        6          -0.000004999   -0.000002328    0.000001859
     11        1           0.000000533    0.000000422    0.000001917
     12        1           0.000002920   -0.000001971   -0.000000354
     13        6           0.000000524   -0.000000705   -0.000001989
     14        1          -0.000002939    0.000002274   -0.000000789
     15        1           0.000000791   -0.000000971   -0.000000105
     16        8           0.002723006    0.001360366    0.000810691
     17        1          -0.000000998   -0.000006209   -0.000000428
     18        8          -0.000008036   -0.000005065   -0.000001268
     19        1           0.000007256    0.000001388    0.000000487
 -------------------------------------------------------------------
 Cartesian Forces:  Max     0.054883831 RMS     0.012489005
 FormGI is forming the generalized inverse of G from B-inverse, IUseBI=4.

 GradGradGradGradGradGradGradGradGradGradGradGradGradGradGradGradGradGrad
 Berny optimization.
 Internal  Forces:  Max     0.068179129 RMS     0.006859092
 Search for a saddle point.
 Step number   1 out of a maximum of  109
 All quantities printed in internal units (Hartrees-Bohrs-Radians)
 Swapping is turned off.
 Second derivative matrix not updated -- analytic derivatives used.
 ITU=  0
     Eigenvalues ---   -0.00653   0.00082   0.00201   0.00229   0.00268
     Eigenvalues ---    0.00350   0.00566   0.00698   0.00780   0.01066
     Eigenvalues ---    0.02097   0.02596   0.03125   0.03504   0.03815
     Eigenvalues ---    0.04072   0.04502   0.04671   0.05029   0.05634
     Eigenvalues ---    0.06438   0.07415   0.08015   0.08147   0.08425
     Eigenvalues ---    0.09108   0.09216   0.10317   0.10605   0.10946
     Eigenvalues ---    0.12289   0.12905   0.14225   0.15403   0.23360
     Eigenvalues ---    0.27184   0.29608   0.31687   0.33567   0.33786
     Eigenvalues ---    0.34109   0.34519   0.35782   0.36189   0.37934
     Eigenvalues ---    0.50358   0.51901   0.53663   0.54904   0.55623
     Eigenvalues ---    0.56920
 Eigenvectors required to have negative eigenvalues:
                          R2        R5        D2        D12       D18
   1                   -0.65811   0.37454   0.24796   0.21843  -0.21577
                          D13       D9        A5        A6        D16
   1                    0.18489  -0.15653   0.15090   0.13664   0.13118
 RFO step:  Lambda0=4.055020989D-02 Lambda=-3.78285815D-02.
 Linear search not attempted -- option 19 set.
 Maximum step size (   0.300) exceeded in Quadratic search.
    -- Step size scaled by   0.352
 Iteration  1 RMS(Cart)=  0.04531890 RMS(Int)=  0.00463517
 Iteration  2 RMS(Cart)=  0.00754409 RMS(Int)=  0.00093189
 Iteration  3 RMS(Cart)=  0.00001031 RMS(Int)=  0.00093186
 Iteration  4 RMS(Cart)=  0.00000000 RMS(Int)=  0.00093186
 Variable       Old X    -DE/DX   Delta X   Delta X   Delta X     New X
                                 (Linear)    (Quad)   (Total)
    R1        3.07314   0.00001   0.00000   0.00505   0.00505   3.07820
    R2        3.96842  -0.06818   0.00000   0.02524   0.02524   3.99366
    R3        3.11649  -0.00003   0.00000   0.00452   0.00471   3.12120
    R4        3.08276   0.00001   0.00000   0.00393   0.00393   3.08669
    R5        3.96842  -0.00295   0.00000  -0.24253  -0.24253   3.72589
    R6        1.80352  -0.00000   0.00000  -0.00084  -0.00084   1.80267
    R7        1.80775  -0.00000   0.00000  -0.00055  -0.00055   1.80720
    R8        1.81906  -0.00000   0.00000   0.00426   0.00426   1.82332
    R9        3.83330  -0.00017   0.00000  -0.00733  -0.00721   3.82609
   R10        1.81442  -0.00000   0.00000   0.00313   0.00313   1.81755
   R11        2.05091   0.00000   0.00000  -0.00166  -0.00166   2.04926
   R12        2.06044  -0.00000   0.00000  -0.00179  -0.00179   2.05865
   R13        2.87134  -0.00001   0.00000  -0.00165  -0.00185   2.86950
   R14        2.72882   0.00011   0.00000   0.01541   0.01535   2.74416
   R15        2.06285  -0.00000   0.00000  -0.00038  -0.00038   2.06247
   R16        2.06172  -0.00000   0.00000   0.00001   0.00001   2.06173
   R17        2.66616   0.00003   0.00000  -0.00161  -0.00171   2.66445
   R18        1.82374  -0.00000   0.00000   0.00326   0.00326   1.82701
   R19        1.82073  -0.00016   0.00000   0.00089   0.00088   1.82161
    A1        1.71193   0.00001   0.00000  -0.02085  -0.02140   1.69053
    A2        2.05913   0.00001   0.00000  -0.00625  -0.01064   2.04849
    A3        2.10052  -0.00001   0.00000   0.00887   0.00443   2.10495
    A4        1.53174  -0.00008   0.00000   0.06267   0.06293   1.59467
    A5        1.57838  -0.00008   0.00000  -0.06389  -0.06296   1.51543
    A6        1.64253   0.00001   0.00000  -0.06625  -0.06474   1.57778
    A7        2.09547   0.00001   0.00000   0.03593   0.03147   2.12694
    A8        1.47120   0.00018   0.00000   0.04534   0.04517   1.51637
    A9        1.48867  -0.00005   0.00000   0.04517   0.04414   1.53282
   A10        2.04142  -0.00000   0.00000   0.01540   0.01540   2.05682
   A11        1.85450   0.00000   0.00000   0.00478   0.00478   1.85927
   A12        1.85520   0.00003   0.00000  -0.03587  -0.03601   1.81918
   A13        2.14203  -0.00005   0.00000  -0.03664  -0.03640   2.10563
   A14        2.20424   0.00001   0.00000   0.05667   0.05549   2.25974
   A15        1.88624   0.00000   0.00000  -0.03446  -0.03446   1.85178
   A16        1.92209   0.00002   0.00000   0.00526   0.00518   1.92727
   A17        1.95489   0.00005   0.00000   0.00977   0.00971   1.96460
   A18        1.85971  -0.00013   0.00000  -0.00175  -0.00158   1.85814
   A19        1.93930  -0.00012   0.00000   0.00286   0.00284   1.94214
   A20        1.86549   0.00004   0.00000  -0.01264  -0.01276   1.85273
   A21        1.91855   0.00013   0.00000  -0.00486  -0.00492   1.91363
   A22        1.91603  -0.00005   0.00000   0.00208   0.00215   1.91818
   A23        1.90260   0.00006   0.00000  -0.00310  -0.00312   1.89949
   A24        1.92111  -0.00003   0.00000  -0.00476  -0.00486   1.91625
   A25        1.88970  -0.00000   0.00000  -0.00025  -0.00026   1.88944
   A26        1.93919   0.00009   0.00000   0.00349   0.00339   1.94258
   A27        1.89447  -0.00008   0.00000   0.00250   0.00264   1.89712
   A28        2.13694   0.00016   0.00000   0.00266   0.00334   2.14028
   A29        1.82643   0.00004   0.00000   0.01684   0.01658   1.84301
   A30        1.84535  -0.00006   0.00000  -0.00454  -0.00476   1.84059
   A31        1.86471  -0.00001   0.00000   0.00219   0.00140   1.86611
   A32        2.50496  -0.00031   0.00000  -0.03466  -0.03459   2.47037
   A33        3.24367  -0.00006   0.00000   0.04181   0.04153   3.28520
   A34        3.19118  -0.00008   0.00000  -0.00032  -0.00016   3.19101
    D1        2.76258   0.00001   0.00000  -0.05134  -0.05140   2.71118
    D2       -1.86555  -0.00008   0.00000  -0.13722  -0.13614  -2.00169
    D3        1.02392  -0.00002   0.00000   0.03784   0.03704   1.06096
    D4       -0.42860   0.00009   0.00000  -0.05102  -0.05124  -0.47983
    D5       -0.08033   0.00000   0.00000   0.00760   0.00750  -0.07283
    D6       -2.14604   0.00000   0.00000   0.02629   0.02770  -2.11834
    D7        2.03954  -0.00000   0.00000  -0.00083  -0.00215   2.03739
    D8       -1.62956   0.00003   0.00000   0.05784   0.05817  -1.57139
    D9        1.91227   0.00005   0.00000   0.07975   0.07925   1.99151
   D10        0.10529   0.00000   0.00000  -0.00094   0.00034   0.10563
   D11       -2.63607   0.00002   0.00000   0.02097   0.02141  -2.61465
   D12        1.76340  -0.00003   0.00000  -0.11266  -0.11319   1.65021
   D13       -0.97796  -0.00001   0.00000  -0.09075  -0.09212  -1.07007
   D14       -3.10268   0.00002   0.00000  -0.03936  -0.03821  -3.14090
   D15        0.43915   0.00004   0.00000  -0.01745  -0.01714   0.42200
   D16        1.69900   0.00002   0.00000  -0.06481  -0.06547   1.63353
   D17       -0.07877  -0.00000   0.00000  -0.00140  -0.00191  -0.08068
   D18       -1.69996   0.00008   0.00000   0.10771   0.10935  -1.59062
   D19       -3.10711  -0.00010   0.00000   0.03401   0.03354  -3.07358
   D20        2.67753  -0.00003   0.00000   0.01183   0.01174   2.68927
   D21       -1.51343   0.00004   0.00000   0.02231   0.02235  -1.49108
   D22       -1.53904  -0.00002   0.00000  -0.00739  -0.00694  -1.54598
   D23        0.55319   0.00004   0.00000   0.00309   0.00367   0.55686
   D24        0.57084  -0.00003   0.00000   0.01460   0.01393   0.58477
   D25        2.66307   0.00003   0.00000   0.02508   0.02454   2.68761
   D26       -0.11074   0.00001   0.00000   0.00361   0.00280  -0.10793
   D27       -2.76982   0.00003   0.00000   0.05804   0.05958  -2.71023
   D28        0.76054   0.00004   0.00000  -0.00769  -0.00772   0.75282
   D29       -1.30672   0.00003   0.00000  -0.00676  -0.00680  -1.31352
   D30        2.90040   0.00010   0.00000  -0.00509  -0.00526   2.89514
   D31        2.91842   0.00002   0.00000   0.00845   0.00848   2.92690
   D32        0.85117   0.00001   0.00000   0.00938   0.00939   0.86056
   D33       -1.22490   0.00008   0.00000   0.01106   0.01093  -1.21397
   D34       -1.30338   0.00008   0.00000  -0.00848  -0.00862  -1.31199
   D35        2.91256   0.00007   0.00000  -0.00755  -0.00770   2.90486
   D36        0.83649   0.00014   0.00000  -0.00588  -0.00616   0.83033
   D37       -1.02231   0.00012   0.00000   0.02076   0.02069  -1.00162
   D38       -3.10551   0.00000   0.00000  -0.00004  -0.00009  -3.10560
   D39       -3.07718   0.00014   0.00000   0.02181   0.02176  -3.05543
   D40        1.12281   0.00003   0.00000   0.00101   0.00097   1.12377
   D41        1.09950   0.00018   0.00000   0.02872   0.02865   1.12814
   D42       -0.98370   0.00007   0.00000   0.00792   0.00786  -0.97584
   D43       -1.58987   0.00013   0.00000  -0.02610  -0.02618  -1.61604
   D44        0.53629   0.00011   0.00000  -0.02438  -0.02451   0.51178
   D45        2.61228   0.00011   0.00000  -0.02104  -0.02113   2.59115
   D46        0.74401   0.00013   0.00000   0.04638   0.04658   0.79058
         Item               Value     Threshold  Converged?
 Maximum Force            0.068179     0.000450     NO 
 RMS     Force            0.006859     0.000300     NO 
 Maximum Displacement     0.202779     0.001800     NO 
 RMS     Displacement     0.047721     0.001200     NO 
 Predicted change in Energy= 1.631162D-03
 GradGradGradGradGradGradGradGradGradGradGradGradGradGradGradGradGradGrad

                          Input orientation:                          
 ---------------------------------------------------------------------
 Center     Atomic      Atomic             Coordinates (Angstroms)
 Number     Number       Type             X           Y           Z
 ---------------------------------------------------------------------
      1         14           0        0.939612   -0.133239   -0.073600
      2          8           0        1.744597   -1.062052   -1.142554
      3          1           0        1.374370   -1.913828   -1.360267
      4          8           0        2.601005    0.998084    0.579205
      5          1           0        3.368278    0.632554    0.140743
      6          8           0        0.306188    1.287744   -0.628213
      7          1           0        1.011247    1.931727   -0.489898
      8          8           0        0.680946   -0.655234    1.452382
      9          1           0        1.406401   -0.307779    1.979695
     10          6           0       -1.907471   -1.031875    0.339116
     11          1           0       -1.559877   -1.550465    1.225801
     12          1           0       -2.671790   -1.618482   -0.169295
     13          6           0       -2.400569    0.372210    0.641041
     14          1           0       -1.715641    0.865846    1.332689
     15          1           0       -3.379621    0.306696    1.117999
     16          8           0       -0.776705   -0.967259   -0.569690
     17          1           0       -1.092403   -0.474389   -1.339195
     18          8           0       -2.530268    1.101041   -0.558954
     19          1           0       -1.697913    1.567806   -0.695059
 ---------------------------------------------------------------------
                    Distance matrix (angstroms):
                    1          2          3          4          5
     1  Si   0.000000
     2  O    1.628913   0.000000
     3  H    2.239425   0.953934   0.000000
     4  O    2.113356   2.818164   3.707481   0.000000
     5  H    2.555543   2.674861   3.565496   0.956331   0.000000
     6  O    1.651670   2.802696   3.453546   2.609204   3.224432
     7  H    2.107728   3.150630   3.959506   2.131197   2.764264
     8  O    1.633404   2.833822   3.158463   2.680023   3.255848
     9  H    2.112907   3.229821   3.706179   2.256929   2.848672
    10  C    3.013928   3.941302   3.799504   4.950226   5.535631
    11  H    3.153477   4.094778   3.928052   4.922005   5.498149
    12  H    3.906063   4.556460   4.228127   5.933721   6.453349
    13  C    3.452970   4.735053   4.845758   5.040961   5.796350
    14  H    3.166415   4.670853   4.952451   4.383909   5.226987
    15  H    4.502135   5.765517   5.802841   6.044519   6.826079
    16  O    1.971659   2.587301   2.479542   4.073261   4.499445
    17  H    2.418099   2.903892   2.856116   4.414714   4.828376
    18  O    3.714712   4.826389   4.997773   5.256992   5.958347
    19  H    3.199423   4.355144   4.690757   4.519849   5.219153
                    6          7          8          9         10
     6  O    0.000000
     7  H    0.964859   0.000000
     8  O    2.871321   3.251756   0.000000
     9  H    3.249207   3.357145   0.961805   0.000000
    10  C    3.349126   4.241358   2.842732   3.767966   0.000000
    11  H    3.869754   4.656174   2.423648   3.303246   1.084420
    12  H    4.186300   5.125576   3.846885   4.792468   1.089391
    13  C    3.126618   3.918112   3.348082   4.092359   1.518473
    14  H    2.847969   3.448745   2.841063   3.397522   2.150658
    15  H    4.194866   4.950331   4.186326   4.901643   2.136739
    16  O    2.502223   3.406942   2.512147   3.420560   1.452149
    17  H    2.359379   3.306969   3.312156   4.157742   1.947269
    18  O    2.843438   3.638287   4.176347   4.891511   2.396610
    19  H    2.024679   2.741182   3.900306   4.506540   2.805668
                   11         12         13         14         15
    11  H    0.000000
    12  H    1.785292   0.000000
    13  C    2.178391   2.166347   0.000000
    14  H    2.423684   3.056479   1.091412   0.000000
    15  H    2.602332   2.421664   1.091020   1.768494   0.000000
    16  O    2.043838   2.043467   2.428370   2.803733   3.353569
    17  H    2.820581   2.274220   2.519795   3.053461   3.446631
    18  O    3.340283   2.750939   1.409966   2.072980   2.040725
    19  H    3.665020   3.373024   1.925705   2.145886   2.775918
                   16         17         18         19
    16  O    0.000000
    17  H    0.966811   0.000000
    18  O    2.711635   2.271170   0.000000
    19  H    2.700166   2.225335   0.963955   0.000000
 Stoichiometry    C2H10O6Si
 Framework group  C1[X(C2H10O6Si)]
 Deg. of freedom    51
 Full point group                 C1      NOp   1
 Largest Abelian subgroup         C1      NOp   1
 Largest concise Abelian subgroup C1      NOp   1
                         Standard orientation:                         
 ---------------------------------------------------------------------
 Center     Atomic      Atomic             Coordinates (Angstroms)
 Number     Number       Type             X           Y           Z
 ---------------------------------------------------------------------
      1         14           0        0.959004   -0.107254   -0.067243
      2          8           0        1.783407   -1.008721   -1.144775
      3          1           0        1.428297   -1.863690   -1.374804
      4          8           0        2.598786    1.043156    0.606512
      5          1           0        3.373701    0.696130    0.166456
      6          8           0        0.303976    1.309964   -0.606173
      7          1           0        0.997641    1.963790   -0.456863
      8          8           0        0.703403   -0.653024    1.450918
      9          1           0        1.420967   -0.300309    1.985486
     10          6           0       -1.874171   -1.058474    0.322711
     11          1           0       -1.521268   -1.582525    1.204071
     12          1           0       -2.626663   -1.651177   -0.196164
     13          6           0       -2.391814    0.333203    0.640581
     14          1           0       -1.717831    0.829281    1.341176
     15          1           0       -3.371410    0.245254    1.112791
     16          8           0       -0.741253   -0.963352   -0.580719
     17          1           0       -1.062273   -0.465986   -1.345113
     18          8           0       -2.529199    1.075103   -0.550516
     19          1           0       -1.704266    1.557394   -0.677361
 ---------------------------------------------------------------------
 Rotational constants (GHZ):           2.2085031           0.9088908           0.8519430
 Standard basis: def2TZVPP (5D, 7F)
 There are   486 symmetry adapted cartesian basis functions of A   symmetry.
 There are   430 symmetry adapted basis functions of A   symmetry.
   430 basis functions,   647 primitive gaussians,   486 cartesian basis functions
    42 alpha electrons       42 beta electrons
       nuclear repulsion energy       661.0818787328 Hartrees.
 NAtoms=   19 NActive=   19 NUniq=   19 SFac= 1.00D+00 NAtFMM=   60 NAOKFM=F Big=F
 Integral buffers will be    131072 words long.
 Raffenetti 2 integral format.
 Two-electron integral symmetry is turned on.
 Nuclear repulsion after empirical dispersion term =      661.0711618680 Hartrees.
 One-electron integrals computed using PRISM.
   1 Symmetry operations used in ECPInt.
 ECPInt:  NShTT=   13203 NPrTT=   36019 LenC2=   12656 LenP2D=   27210.
 LDataN:  DoStor=T MaxTD1= 6 Len=  172
 NBasis=   430 RedAO= T EigKep=  1.98D-04  NBF=   430
 NBsUse=   430 1.00D-06 EigRej= -1.00D+00 NBFU=   430
 Initial guess from the checkpoint file:  "TSOpt_FromFrozenBoth21.chk"
 B after Tr=     0.000000    0.000000    0.000000
         Rot=    0.999934   -0.008243    0.002091   -0.007736 Ang=  -1.32 deg.
 ExpMin= 7.01D-02 ExpMax= 4.48D+04 ExpMxC= 1.53D+03 IAcc=3 IRadAn=         5 AccDes= 0.00D+00
 Harris functional with IExCor= 4639 and IRadAn=       5 diagonalized for initial guess.
 HarFok:  IExCor= 4639 AccDes= 0.00D+00 IRadAn=         5 IDoV= 1 UseB2=F ITyADJ=14
 ICtDFT=  3500011 ScaDFX=  1.000000  1.000000  1.000000  1.000000
 FoFCou: FMM=F IPFlag=           0 FMFlag=      100000 FMFlg1=           0
         NFxFlg=           0 DoJE=T BraDBF=F KetDBF=T FulRan=T
         wScrn=  0.000000 ICntrl=       500 IOpCl=  0 I1Cent=   200000004 NGrid=           0
         NMat0=    1 NMatS0=      1 NMatT0=    0 NMatD0=    1 NMtDS0=    0 NMtDT0=    0
 Petite list used in FoFCou.
 Requested convergence on RMS density matrix=1.00D-08 within 128 cycles.
 Requested convergence on MAX density matrix=1.00D-06.
 Requested convergence on             energy=1.00D-06.
 No special actions if energy rises.
 Integral accuracy reduced to 1.0D-05 until final iterations.
 Initial convergence to 1.0D-05 achieved.  Increase integral accuracy.
 SCF Done:  E(RwB97XD) =  -823.318767956     A.U. after   12 cycles
            NFock= 12  Conv=0.44D-08     -V/T= 2.0037
 DoSCS=F DFT=T ScalE2(SS,OS)=  1.000000  1.000000
 Range of M.O.s used for correlation:     1   430
 NBasis=   430 NAE=    42 NBE=    42 NFC=     0 NFV=     0
 NROrb=    430 NOA=    42 NOB=    42 NVA=   388 NVB=   388

 **** Warning!!: The largest alpha MO coefficient is  0.11679200D+02

   1 Symmetry operations used in ECPInt.
 ECPInt:  NShTT=   13203 NPrTT=   36019 LenC2=   12656 LenP2D=   27210.
 LDataN:  DoStor=T MaxTD1= 7 Len=  274
 Number of processors reduced to  12 by ecpmxn.
 Symmetrizing basis deriv contribution to polar:
 IMax=3 JMax=2 DiffMx= 0.00D+00
 G2DrvN: will do    20 centers at a time, making    1 passes.
 Calling FoFCou, ICntrl=  3107 FMM=F I1Cent=   0 AccDes= 0.00D+00.
 End of G2Drv F.D. properties file   721 does not exist.
 End of G2Drv F.D. properties file   722 does not exist.
 End of G2Drv F.D. properties file   788 does not exist.
          IDoAtm=1111111111111111111
          Differentiating once with respect to electric field.
                with respect to dipole field.
          Differentiating once with respect to nuclear coordinates.
 CalDSu exits because no D1Ps are significant.
          There are    60 degrees of freedom in the 1st order CPHF.  IDoFFX=6 NUNeed=     3.
     57 vectors produced by pass  0 Test12= 2.72D-14 1.67D-09 XBig12= 2.55D+01 8.74D-01.
 AX will form    57 AO Fock derivatives at one time.
     57 vectors produced by pass  1 Test12= 2.72D-14 1.67D-09 XBig12= 1.84D+00 1.97D-01.
     57 vectors produced by pass  2 Test12= 2.72D-14 1.67D-09 XBig12= 5.42D-02 4.15D-02.
     57 vectors produced by pass  3 Test12= 2.72D-14 1.67D-09 XBig12= 6.98D-04 3.73D-03.
     57 vectors produced by pass  4 Test12= 2.72D-14 1.67D-09 XBig12= 6.85D-06 2.44D-04.
     57 vectors produced by pass  5 Test12= 2.72D-14 1.67D-09 XBig12= 4.98D-08 2.29D-05.
     57 vectors produced by pass  6 Test12= 2.72D-14 1.67D-09 XBig12= 3.60D-10 1.87D-06.
     16 vectors produced by pass  7 Test12= 2.72D-14 1.67D-09 XBig12= 2.15D-12 1.40D-07.
      3 vectors produced by pass  8 Test12= 2.72D-14 1.67D-09 XBig12= 1.21D-14 1.21D-08.
 InvSVY:  IOpt=1 It=  1 EMax= 1.78D-15
 Solved reduced A of dimension   418 with    60 vectors.
 Isotropic polarizability for W=    0.000000       72.69 Bohr**3.
 End of Minotr F.D. properties file   721 does not exist.
 End of Minotr F.D. properties file   722 does not exist.
 End of Minotr F.D. properties file   788 does not exist.
   1 Symmetry operations used in ECPInt.
 ECPInt:  NShTT=   13203 NPrTT=   36019 LenC2=   12656 LenP2D=   27210.
 LDataN:  DoStor=T MaxTD1= 8 Len=  415
 Calling FoFJK, ICntrl=    100127 FMM=F ISym2X=0 I1Cent= 0 IOpClX= 0 NMat=1 NMatS=1 NMatT=0.
 ***** Axes restored to original set *****
 -------------------------------------------------------------------
 Center     Atomic                   Forces (Hartrees/Bohr)
 Number     Number              X              Y              Z
 -------------------------------------------------------------------
      1       14           0.052524148    0.036215703    0.021496475
      2        8          -0.001171664   -0.000919875   -0.000915216
      3        1           0.000040028   -0.000098652    0.000122247
      4        8          -0.046024243   -0.033251182   -0.019376536
      5        1           0.000431252    0.000509966    0.000378695
      6        8          -0.002839899   -0.001043552   -0.000815379
      7        1          -0.000112341    0.000367033   -0.000034543
      8        8          -0.002162285   -0.001252747   -0.000203701
      9        1           0.000046438   -0.000023360    0.000108227
     10        6          -0.000315327   -0.000560641    0.000167081
     11        1           0.000117609    0.000095580    0.000105910
     12        1           0.000006121   -0.000030536   -0.000066012
     13        6          -0.000065391   -0.000012299    0.000025823
     14        1           0.000103317    0.000046243   -0.000116859
     15        1           0.000008369   -0.000067439    0.000036965
     16        8          -0.000820061   -0.000111735   -0.000532957
     17        1          -0.000031615   -0.000069107   -0.000223307
     18        8          -0.000274193    0.000141769   -0.000086802
     19        1           0.000539737    0.000064832   -0.000070110
 -------------------------------------------------------------------
 Cartesian Forces:  Max     0.052524148 RMS     0.011960220
 FormGI is forming the generalized inverse of G from B-inverse, IUseBI=4.

 GradGradGradGradGradGradGradGradGradGradGradGradGradGradGradGradGradGrad
 Berny optimization.
 Internal  Forces:  Max     0.059237788 RMS     0.005976214
 Search for a saddle point.
 Step number   2 out of a maximum of  109
 All quantities printed in internal units (Hartrees-Bohrs-Radians)
 Swapping is turned off.
 Second derivative matrix not updated -- analytic derivatives used.
 ITU=  0  0
     Eigenvalues ---   -0.00676   0.00073   0.00172   0.00245   0.00308
     Eigenvalues ---    0.00362   0.00648   0.00872   0.00957   0.01140
     Eigenvalues ---    0.02257   0.03196   0.03531   0.03954   0.04206
     Eigenvalues ---    0.04506   0.04636   0.04714   0.05106   0.05823
     Eigenvalues ---    0.06535   0.07595   0.08001   0.08367   0.08602
     Eigenvalues ---    0.09265   0.09652   0.10407   0.10958   0.11392
     Eigenvalues ---    0.12904   0.13698   0.15924   0.16142   0.23458
     Eigenvalues ---    0.27136   0.29230   0.31435   0.33638   0.33775
     Eigenvalues ---    0.33926   0.34655   0.35907   0.36044   0.38016
     Eigenvalues ---    0.50250   0.51287   0.52578   0.54296   0.55671
     Eigenvalues ---    0.57027
 Eigenvectors required to have negative eigenvalues:
                          R2        D2        D12       D18       R5
   1                    0.70154  -0.25866  -0.23850   0.23696  -0.22225
                          D13       A5        D9        A6        D27
   1                   -0.18924  -0.15530   0.14385  -0.14122   0.13053
 RFO step:  Lambda0=4.138355275D-02 Lambda=-2.38538217D-02.
 Linear search not attempted -- option 19 set.
 Maximum step size (   0.300) exceeded in Quadratic search.
    -- Step size scaled by   0.471
 Iteration  1 RMS(Cart)=  0.06147521 RMS(Int)=  0.00360525
 Iteration  2 RMS(Cart)=  0.00396514 RMS(Int)=  0.00155543
 Iteration  3 RMS(Cart)=  0.00001188 RMS(Int)=  0.00155539
 Iteration  4 RMS(Cart)=  0.00000002 RMS(Int)=  0.00155539
 Variable       Old X    -DE/DX   Delta X   Delta X   Delta X     New X
                                 (Linear)    (Quad)   (Total)
    R1        3.07820   0.00054   0.00000  -0.00280  -0.00280   3.07540
    R2        3.99366  -0.05924   0.00000   0.10952   0.10952   4.10318
    R3        3.12120   0.00086   0.00000  -0.00338  -0.00295   3.11825
    R4        3.08669   0.00065   0.00000  -0.00181  -0.00181   3.08488
    R5        3.72589   0.00135   0.00000  -0.16645  -0.16650   3.55940
    R6        1.80267   0.00004   0.00000  -0.00019  -0.00019   1.80248
    R7        1.80720  -0.00002   0.00000  -0.00058  -0.00058   1.80662
    R8        1.82332   0.00016   0.00000   0.01050   0.01050   1.83382
    R9        3.82609  -0.00031   0.00000   0.01200   0.01233   3.83841
   R10        1.81755   0.00009   0.00000   0.00752   0.00752   1.82506
   R11        2.04926   0.00008   0.00000  -0.00093  -0.00093   2.04833
   R12        2.05865   0.00004   0.00000  -0.00164  -0.00164   2.05701
   R13        2.86950   0.00004   0.00000  -0.00010  -0.00059   2.86891
   R14        2.74416   0.00027   0.00000   0.01660   0.01635   2.76051
   R15        2.06247   0.00001   0.00000  -0.00058  -0.00058   2.06189
   R16        2.06173   0.00001   0.00000   0.00001   0.00001   2.06174
   R17        2.66445   0.00007   0.00000  -0.00104  -0.00119   2.66326
   R18        1.82701   0.00015   0.00000   0.00381   0.00381   1.83081
   R19        1.82161   0.00014   0.00000   0.00092   0.00095   1.82256
    A1        1.69053  -0.00043   0.00000  -0.00415  -0.00590   1.68463
    A2        2.04849  -0.00009   0.00000  -0.02404  -0.02946   2.01903
    A3        2.10495  -0.00002   0.00000  -0.00384  -0.00934   2.09561
    A4        1.59467  -0.00070   0.00000   0.07103   0.07199   1.66666
    A5        1.51543   0.00162   0.00000  -0.07941  -0.07731   1.43812
    A6        1.57778   0.00087   0.00000  -0.08858  -0.08584   1.49194
    A7        2.12694  -0.00006   0.00000   0.04213   0.03502   2.16196
    A8        1.51637  -0.00070   0.00000   0.05768   0.05762   1.57399
    A9        1.53282  -0.00068   0.00000   0.05028   0.04899   1.58181
   A10        2.05682  -0.00005   0.00000   0.01827   0.01827   2.07509
   A11        1.85927   0.00139   0.00000   0.01669   0.01669   1.87597
   A12        1.81918   0.00008   0.00000  -0.05646  -0.05694   1.76224
   A13        2.10563   0.00043   0.00000  -0.04706  -0.04688   2.05875
   A14        2.25974  -0.00043   0.00000   0.06725   0.06328   2.32302
   A15        1.85178   0.00014   0.00000  -0.05034  -0.05034   1.80144
   A16        1.92727   0.00004   0.00000   0.00654   0.00639   1.93366
   A17        1.96460   0.00003   0.00000   0.01059   0.01048   1.97508
   A18        1.85814  -0.00005   0.00000  -0.00205  -0.00156   1.85658
   A19        1.94214   0.00000   0.00000   0.00458   0.00471   1.94685
   A20        1.85273   0.00010   0.00000  -0.01121  -0.01137   1.84137
   A21        1.91363  -0.00013   0.00000  -0.01034  -0.01080   1.90283
   A22        1.91818  -0.00003   0.00000   0.00227   0.00228   1.92046
   A23        1.89949  -0.00002   0.00000  -0.00075  -0.00072   1.89876
   A24        1.91625  -0.00001   0.00000  -0.00836  -0.00842   1.90783
   A25        1.88944   0.00006   0.00000  -0.00004  -0.00006   1.88938
   A26        1.94258  -0.00001   0.00000   0.00249   0.00223   1.94481
   A27        1.89712   0.00002   0.00000   0.00449   0.00479   1.90190
   A28        2.14028   0.00009   0.00000  -0.01414  -0.01278   2.12750
   A29        1.84301   0.00011   0.00000   0.02215   0.02161   1.86463
   A30        1.84059   0.00005   0.00000  -0.00618  -0.00637   1.83421
   A31        1.86611   0.00000   0.00000   0.00242   0.00066   1.86677
   A32        2.47037   0.00012   0.00000  -0.03658  -0.03651   2.43386
   A33        3.28520  -0.00113   0.00000   0.06689   0.06608   3.35128
   A34        3.19101  -0.00045   0.00000  -0.00676  -0.00634   3.18468
    D1        2.71118  -0.00038   0.00000  -0.12161  -0.12158   2.58960
    D2       -2.00169   0.00122   0.00000  -0.21658  -0.21399  -2.21568
    D3        1.06096  -0.00114   0.00000  -0.01448  -0.01672   1.04424
    D4       -0.47983   0.00006   0.00000  -0.11486  -0.11524  -0.59507
    D5       -0.07283  -0.00001   0.00000   0.01817   0.01789  -0.05494
    D6       -2.11834  -0.00009   0.00000   0.05086   0.05386  -2.06448
    D7        2.03739   0.00006   0.00000   0.00117  -0.00156   2.03583
    D8       -1.57139  -0.00104   0.00000   0.03045   0.03115  -1.54024
    D9        1.99151  -0.00106   0.00000   0.08336   0.08151   2.07303
   D10        0.10563  -0.00069   0.00000  -0.01508  -0.01205   0.09358
   D11       -2.61465  -0.00071   0.00000   0.03783   0.03831  -2.57634
   D12        1.65021   0.00134   0.00000  -0.17210  -0.17221   1.47800
   D13       -1.07007   0.00132   0.00000  -0.11918  -0.12185  -1.19192
   D14       -3.14090   0.00011   0.00000  -0.08082  -0.07808   3.06421
   D15        0.42200   0.00009   0.00000  -0.02791  -0.02772   0.39428
   D16        1.63353   0.00091   0.00000  -0.04850  -0.04890   1.58463
   D17       -0.08068   0.00090   0.00000   0.00971   0.00850  -0.07218
   D18       -1.59062  -0.00155   0.00000   0.15968   0.16214  -1.42847
   D19       -3.07358  -0.00030   0.00000   0.06392   0.06307  -3.01050
   D20        2.68927  -0.00014   0.00000   0.02587   0.02561   2.71487
   D21       -1.49108   0.00008   0.00000   0.02753   0.02729  -1.46379
   D22       -1.54598  -0.00020   0.00000  -0.00176  -0.00074  -1.54672
   D23        0.55686   0.00003   0.00000  -0.00010   0.00095   0.55780
   D24        0.58477  -0.00014   0.00000   0.03157   0.03055   0.61532
   D25        2.68761   0.00009   0.00000   0.03324   0.03224   2.71985
   D26       -0.10793  -0.00004   0.00000   0.00988   0.00809  -0.09984
   D27       -2.71023  -0.00028   0.00000   0.12226   0.12602  -2.58421
   D28        0.75282   0.00002   0.00000  -0.02368  -0.02378   0.72904
   D29       -1.31352  -0.00002   0.00000  -0.02451  -0.02461  -1.33813
   D30        2.89514  -0.00003   0.00000  -0.02460  -0.02505   2.87008
   D31        2.92690   0.00010   0.00000  -0.00345  -0.00338   2.92351
   D32        0.86056   0.00006   0.00000  -0.00427  -0.00421   0.85635
   D33       -1.21397   0.00005   0.00000  -0.00437  -0.00466  -1.21863
   D34       -1.31199   0.00014   0.00000  -0.02091  -0.02117  -1.33316
   D35        2.90486   0.00011   0.00000  -0.02173  -0.02200   2.88286
   D36        0.83033   0.00010   0.00000  -0.02182  -0.02245   0.80788
   D37       -1.00162   0.00027   0.00000   0.02237   0.02223  -0.97939
   D38       -3.10560   0.00002   0.00000   0.00734   0.00720  -3.09840
   D39       -3.05543   0.00020   0.00000   0.02129   0.02112  -3.03431
   D40        1.12377  -0.00005   0.00000   0.00626   0.00610   1.12987
   D41        1.12814   0.00021   0.00000   0.02799   0.02775   1.15590
   D42       -0.97584  -0.00004   0.00000   0.01295   0.01273  -0.96311
   D43       -1.61604   0.00007   0.00000  -0.04994  -0.04990  -1.66594
   D44        0.51178   0.00001   0.00000  -0.05112  -0.05128   0.46050
   D45        2.59115   0.00009   0.00000  -0.04681  -0.04693   2.54422
   D46        0.79058  -0.00020   0.00000   0.05935   0.06023   0.85081
[...]
 ,0.00734557,0.01217961,0.00231932,0.00033737,-0.00031127,0.00052324,-0
 .00016976,0.00001234,0.04918569,-0.03926459,-0.03003384,-0.05231167,0.
 03269560,-0.00174348,0.00270055,0.00272485,0.00027543,-0.00107520,-0.0
 0160692,0.00011103,0.00001107,-0.00039303,0.26530491,-0.03512056,-0.23
 462583,-0.25440501,0.03628020,0.22707958,-0.11143347,0.09997474,-0.037
 07076,0.00715315,0.01298730,0.00376884,-0.00284323,0.00102350,-0.00015
 098,-0.10440518,0.03563638,-0.04370332,-0.00231924,0.00209139,-0.00866
 583,0.20340608,0.09147522,-0.27520641,0.06641444,0.00824736,-0.0098710
 6,-0.00055692,0.00171453,0.00071357,0.00137376,-0.00756893,0.03476937,
 -0.00463331,-0.00005031,0.00188588,-0.00081419,-0.12188496,0.32289491,
 -0.03429389,0.07055946,-0.07417799,0.00530282,-0.00888536,0.00632933,0
 .00115563,0.00000902,0.00036194,-0.03929935,0.00949328,0.01200614,-0.0
 0531357,0.00095762,-0.00504112,0.06474855,-0.08575959,0.08349605,0.071
 85911,-0.03389287,0.02440930,-0.00983571,-0.00060643,-0.00400388,-0.00
 012362,-0.00062002,-0.00099587,-0.04834360,-0.01215478,0.00373959,-0.0
 1024695,0.00601164,-0.00155361,0.02310720,0.04082281,0.01062707,-0.014
 90214,-0.03997621,-0.04207436,-0.00353214,0.00188742,0.00180482,0.0010
 5133,-0.00035067,0.00017403,-0.00002542,0.05766228,-0.06626326,0.03346
 119,-0.00272060,0.00036165,-0.00151078,-0.00635152,-0.03958300,-0.0006
 4271,-0.01083030,0.14792201,0.02434164,-0.00264562,0.02199924,-0.00298
 994,-0.00000719,-0.00181511,-0.00021306,-0.00019241,-0.00055217,-0.022
 60749,0.03173382,-0.06454708,0.01425016,-0.01879927,0.01150426,0.01703
 510,0.01488721,-0.02299859,-0.02587076,-0.02938238,0.05904910,-0.04273
 980,-0.00472708,0.00301928,0.00577197,0.00038555,0.00941949,-0.0014059
 6,-0.00034036,0.00058807,-0.00286571,-0.01523925,0.01240324,0.00052732
 ,-0.00228684,-0.00001177,0.01172928,0.00549876,-0.00416160,-0.01130305
 ,0.00196714,-0.00356071,0.31892597,-0.01198374,-0.07498970,0.07066074,
 0.00172038,0.00774971,-0.00801683,-0.00000320,0.00018011,0.00197077,-0
 .01338232,-0.00365531,0.00879694,0.00032237,-0.00385279,0.00036351,0.0
 0304443,-0.00304854,0.01591285,0.00129747,0.00113539,-0.00052114,0.137
 95446,0.13364445,0.02764362,0.08719785,-0.23362301,0.00566108,0.000343
 74,-0.01744342,0.00036797,0.00210730,0.00043487,0.00838073,0.00610163,
 -0.00051852,-0.00081106,0.00092539,0.00014085,-0.00068469,0.00832342,-
 0.00391300,-0.00246405,-0.00045997,-0.00171432,0.23579703,0.01130798,0
 .53192675,0.00237193,-0.00096205,0.00474764,-0.00201605,-0.00025251,0.
 00241127,0.00009007,-0.00017828,-0.00032206,-0.00390924,0.00017690,-0.
 00023785,-0.00005648,-0.00037133,0.00043107,-0.00142416,-0.00089727,0.
 00102241,0.00266824,-0.00038652,0.00029433,-0.26434265,-0.11278351,-0.
 25976287,0.26594228,0.00593783,0.00256335,0.01190004,0.00044093,-0.000
 64777,0.00004168,-0.00021777,0.00006301,-0.00004961,-0.00058653,-0.001
 08284,-0.00109730,-0.00038750,0.00055486,-0.00049671,-0.00187237,-0.00
 233337,0.00011145,0.00174380,-0.00048786,0.00115960,-0.12179738,-0.058
 27519,-0.11407890,0.11584361,0.05836898,-0.01718684,-0.00510150,-0.023
 08733,0.00134059,0.00094277,0.00032303,-0.00010237,-0.00006572,0.00005
 721,-0.00087808,-0.00311532,0.00298840,0.00029261,-0.00076388,0.000280
 74,0.00262975,0.00012120,0.00140312,-0.00262050,0.00066939,-0.00079947
 ,-0.23469432,-0.09433657,-0.25667847,0.25218882,0.10123529,0.27673242,
 -0.02225728,-0.00889530,-0.00163030,0.00210292,0.00024125,0.00011568,-
 0.00150977,0.00061792,0.00034661,0.00164553,0.00007865,0.00076544,-0.0
 0026575,-0.00019795,-0.00000484,0.00219518,0.00610653,0.00092232,-0.00
 185210,0.00031029,-0.00087483,-0.00043750,-0.00030106,0.00475076,0.000
 37959,-0.00042109,0.00023352,0.50107231,-0.00446053,-0.00019576,0.0028
 3885,0.00059598,0.00054630,0.00018568,-0.00075654,0.00053209,0.0001277
 6,0.00038156,-0.00013699,0.00034648,-0.00006748,-0.00002735,0.00000471
 ,0.00079059,-0.00101224,-0.00124338,-0.00041158,-0.00009900,-0.0003685
 0,-0.00074798,-0.00092919,0.00093695,-0.00004448,-0.00015155,0.0000436
 0,0.03612261,0.53120425,0.01661806,0.01192169,0.01541558,-0.00708017,-
 0.00012168,0.00061600,0.00142378,-0.00124819,-0.00054579,-0.00091588,-
 0.00006432,-0.00095848,0.00027662,0.00033905,0.00005957,-0.00079397,-0
 .00653279,-0.00142100,0.00136846,-0.00045090,0.00060060,-0.00050300,0.
 00031765,-0.00587813,-0.00009007,-0.00000916,-0.00009870,0.11019494,-0
 .04429040,0.59670904,0.00114190,-0.00065238,0.00291273,-0.00003610,0.0
 0000032,-0.00058638,0.00013228,-0.00002923,0.00012399,0.00005326,0.000
 27460,-0.00022941,-0.00002527,0.00004801,0.00000255,-0.00039258,-0.000
 41578,-0.00059918,0.00028944,-0.00012968,0.00009008,-0.00166777,0.0000
 9631,-0.00091804,-0.00007512,0.00018176,-0.00017695,-0.08034748,0.0505
 0631,-0.08447594,0.08588178,-0.00019052,-0.00088076,0.00223816,-0.0000
 0887,-0.00004607,-0.00034378,0.00004242,0.00003979,-0.00000090,-0.0001
 1219,0.00027640,-0.00027314,-0.00001633,0.00003752,-0.00000561,-0.0007
 4941,0.00020006,-0.00047803,0.00034457,-0.00005043,0.00014719,0.001070
 56,0.00035752,-0.00060501,0.00007920,0.00000892,-0.00013752,0.04175911
 ,-0.11948188,0.11159175,-0.04650418,0.12396857,-0.00126534,-0.00010213
 ,-0.00102115,0.00029931,-0.00011668,0.00006545,-0.00007739,0.00014297,
 -0.00007323,0.00012829,-0.00007724,0.00008505,-0.00001493,-0.00001807,
 0.00000330,0.00022680,0.00050526,0.00023722,-0.00022753,0.00005153,-0.
 00005925,-0.00160269,-0.00066652,-0.00029511,-0.00025036,-0.00010683,0
 .00016724,-0.06842080,0.10932426,-0.23513249,0.07216901,-0.12137184,0.
 25758783,0.00446233,0.00289665,0.00246581,-0.00160170,0.00019194,0.000
 39325,0.00016730,-0.00036315,-0.00017199,-0.00040735,-0.00007834,-0.00
 013544,0.00006956,0.00005282,0.00000084,-0.00035540,-0.00159054,-0.000
 31776,0.00039799,-0.00008369,0.00013861,-0.00042420,-0.00016808,-0.000
 65628,0.00003273,0.00002877,0.00004091,-0.17599894,-0.09463028,-0.0934
 9677,-0.00410262,-0.00475518,-0.00467031,0.20420671,0.00067004,-0.0001
 1316,0.00039682,-0.00006764,0.00001111,-0.00003878,0.00004007,0.000002
 15,-0.00000866,-0.00004025,0.00008519,-0.00006989,0.00000960,0.0000141
 7,-0.00000284,-0.00011163,0.00007700,0.00011541,0.00012676,-0.00003018
 ,0.00003039,0.00038620,0.00037501,-0.00012346,0.00005685,-0.00001732,-
 0.00007816,-0.09620002,-0.12419444,-0.06456735,0.01165400,0.00985550,0
 .00679777,0.10456422,0.12801937,-0.00215846,-0.00169329,-0.00337631,0.
 00118211,-0.00002259,-0.00003098,-0.00010817,0.00017065,0.00008053,0.0
 0003183,-0.00008978,0.00019558,-0.00001381,-0.00006896,-0.00000781,0.0
 0007721,0.00111471,0.00049043,-0.00020725,0.00011284,-0.00009532,-0.00
 076674,-0.00027378,0.00092965,-0.00004892,-0.00005159,0.00021465,-0.10
 283985,-0.06651928,-0.11896396,-0.01686233,-0.01495874,-0.00890435,0.0
 9198499,0.07363610,0.12384049,-0.00153832,0.00259206,0.00282884,-0.000
 78986,-0.00046127,-0.00037282,0.00038641,-0.00026021,-0.00004727,0.000
 24852,-0.00023283,-0.00003243,-0.00003334,0.00004973,0.00001189,-0.000
 94848,0.00084627,-0.00087766,-0.00042623,0.00023939,-0.00013425,0.0000
 2392,-0.00015869,-0.00079233,-0.00014237,0.00014657,0.00003006,-0.0838
 8725,0.00998948,0.00197599,-0.00008764,0.00659917,0.00009451,0.0086888
 9,-0.02157012,-0.00476828,0.63454970,0.00334375,0.00824870,-0.00035221
 ,-0.00105752,-0.00117779,0.00009276,0.00051367,-0.00018770,-0.00019603
 ,0.00178306,-0.00122677,0.00104144,0.00002581,0.00006898,0.00008494,0.
 00594971,-0.00271893,0.00043199,-0.00217104,0.00002715,-0.00095474,-0.
 00071156,-0.00210982,0.00001881,-0.00018116,0.00015585,-0.00003463,0.0
 2613505,-0.17067138,-0.04464332,-0.00035188,-0.00814084,-0.00262041,0.
 00709620,-0.01532893,-0.00306768,0.05621309,0.47250639,-0.00127428,-0.
 00403705,0.00472281,0.00039429,0.00080325,-0.00038512,-0.00024079,0.00
 014048,0.00011122,-0.00238005,0.00111527,-0.00142529,-0.00006921,0.000
 02611,-0.00008892,-0.00748478,0.00233517,-0.00393937,0.00255664,0.0000
 7142,0.00123791,0.00159911,-0.00054920,-0.00183413,-0.00036347,-0.0000
 0018,0.00019323,-0.00446895,-0.02715375,-0.08408354,-0.00857277,0.0249
 4724,0.00911924,0.00566132,-0.01970249,-0.00491516,-0.00737090,0.02945
 341,0.55143048,-0.00101309,0.00074950,0.00082653,0.00011027,-0.0001633
 2,-0.00014464,-0.00000260,0.00003509,0.00002865,0.00038903,0.00001418,
 0.00010817,-0.00003251,-0.00000848,0.00000284,0.00011827,-0.00067631,0
 .00034835,-0.00032568,-0.00007451,-0.00004060,-0.00031777,0.00004920,-
 0.00002805,-0.00011915,0.00007522,-0.00011431,0.00674159,0.00636707,0.
 00791438,0.00060314,-0.00090512,-0.00013810,0.00036768,0.00237829,0.00
 095954,-0.15105683,-0.06752307,-0.10620682,0.15443456,0.00028319,-0.00
 003961,-0.00228269,0.00012626,0.00003363,0.00029217,-0.00007029,-0.000
 00954,-0.00002769,-0.00012792,-0.00010138,0.00009071,0.00001075,-0.000
 02555,-0.00000694,-0.00010026,-0.00056847,0.00039779,-0.00000842,0.000
 07242,0.00005176,-0.00074241,0.00025280,0.00084489,0.00012797,0.000054
 61,0.00007109,-0.02214235,-0.01778966,-0.02013223,-0.00020943,0.000740
 74,0.00011108,0.00272433,-0.00513132,-0.00141311,-0.06728767,-0.097663
 53,-0.07675200,0.07066230,0.10838142,0.00121429,-0.00150337,-0.0014338
 2,-0.00001129,0.00024724,0.00021174,-0.00005480,-0.00000126,-0.0000362
 0,-0.00019282,0.00005933,-0.00007195,0.00004899,-0.00000914,-0.0000054
 9,-0.00006748,0.00019988,0.00152529,0.00029384,-0.00003113,0.00011525,
 -0.00066039,0.00065016,-0.00001531,-0.00003079,0.00002599,0.00011373,-
 0.00502766,-0.00458656,-0.00300704,0.00035494,0.00010914,0.00064242,0.
 00030259,-0.00063161,0.00080445,-0.09925760,-0.07355937,-0.16394542,0.
 11607719,0.07385211,0.18960861,0.00140582,-0.00041920,-0.00020512,-0.0
 0023681,0.00015321,0.00010813,0.00007345,-0.00006984,-0.00004347,-0.00
 046790,0.00007814,-0.00017565,0.00004687,0.00001408,-0.00000710,-0.000
 79298,-0.00014779,0.00029609,0.00052709,-0.00001488,0.00019378,-0.0003
 7757,0.00028839,-0.00023929,0.00001215,-0.00000339,0.00011657,-0.00957
 249,-0.00234994,0.00183622,-0.00018436,0.00072698,0.00017474,0.0010880
 2,0.00022991,0.00021929,-0.28522124,-0.00270929,0.08299071,-0.01606305
 ,0.00095158,0.00619999,0.30203620,-0.00122917,-0.00221582,-0.00089502,
 0.00056310,0.00028647,0.00006114,-0.00022976,0.00014746,0.00005894,-0.
 00032234,0.00019116,-0.00009166,-0.00002178,-0.00003061,-0.00002267,-0
 .00104000,0.00079516,0.00006999,0.00036264,0.00003668,0.00009658,-0.00
 001502,0.00034178,0.00034526,0.00004804,-0.00004043,0.00003528,0.02675
 571,0.00401069,-0.00990804,-0.00044107,-0.00012734,0.00110767,-0.00049
 048,0.00124209,-0.00057628,0.00045894,-0.05037111,-0.00380681,-0.01339
 847,0.00115301,0.00460900,0.00410465,0.05689766,0.00015513,0.00003193,
 -0.00092250,0.00008248,-0.00003608,0.00005831,-0.00003598,0.00003019,0
 .00000367,0.00031468,-0.00009773,0.00013693,0.00001977,-0.00001131,0.0
 0001767,0.00097950,-0.00034095,0.00104201,-0.00025641,-0.00004100,-0.0
 0006262,-0.00038288,0.00017254,0.00021603,0.00001909,0.00001765,0.0000
 3357,0.00933713,-0.00301124,-0.00197636,0.00038224,-0.00079538,-0.0003
 3314,-0.00012001,0.00031721,0.00020352,0.07415385,-0.00140054,-0.07595
 470,-0.01958464,0.00033446,0.00970117,-0.09410003,-0.00594734,0.090528
 41,0.00751341,0.01053674,0.01345844,-0.02810737,-0.00099097,0.00514313
 ,-0.00020327,-0.00435542,-0.00146385,-0.00287108,-0.00079032,-0.001669
 49,0.00073941,0.00084445,0.00011924,-0.00487214,-0.01937560,-0.0035076
 1,0.00385849,-0.00135179,0.00133583,-0.00818517,-0.00331379,-0.0159830
 0,0.00045413,0.00093788,-0.00041760,-0.14616163,0.00616765,0.02080862,
 0.00370330,-0.00006022,-0.00072888,-0.03563426,-0.00185447,0.03250204,
 -0.02718543,0.00286297,0.01965609,0.00087640,0.00128761,0.00039979,0.0
 0068931,0.00626732,0.00092468,0.33735693,0.01417324,-0.02413165,0.0047
 8089,0.00025682,0.00469801,-0.00035725,-0.00087065,-0.00018631,0.00040
 549,-0.00594676,0.00428790,-0.00269835,0.00009774,-0.00003374,-0.00038
 682,-0.02247183,-0.02421974,-0.00275774,0.00973855,-0.00331604,0.00390
 310,0.00041194,0.00324154,-0.00010920,-0.00004034,0.00101526,0.0008981
 8,-0.00960145,-0.06902905,0.01615472,-0.01690450,0.00115835,0.01182669
 ,-0.01495760,0.00266871,0.01400404,0.03074661,-0.00211637,-0.01519495,
 -0.00087455,0.00215466,0.00042777,0.00187345,-0.00578443,-0.00151304,-
 0.08045542,0.28258113,0.00416093,-0.00256390,-0.03405305,0.01339920,0.
 00000731,0.00430308,-0.00171208,0.00244984,-0.00062694,0.00002444,0.00
 021613,0.00102945,-0.00013636,-0.00065176,-0.00015489,-0.00137764,0.00
 078071,0.00694753,-0.00072999,0.00000943,0.00044710,-0.01557049,-0.005
 12383,-0.01385846,-0.00016901,0.00130186,-0.00161967,0.05454743,-0.001
 89787,-0.12334154,0.03192180,-0.00093413,-0.02207380,-0.00075645,0.002
 61221,0.00650810,0.02382420,0.00347411,-0.01650339,-0.00094361,0.00070
 577,0.00062816,0.00033255,-0.00465566,0.00029972,0.01582841,-0.2101121
 3,0.46402022,-0.00814968,0.00574208,-0.01598312,0.00094591,-0.00112179
 ,0.00264814,-0.00049394,0.00077629,-0.00071800,0.00142979,-0.00062548,
 0.00074946,-0.00010769,-0.00022265,0.00001561,0.00126558,0.00427552,0.
 00357825,-0.00241296,0.00054541,-0.00052718,-0.00207183,-0.00120608,-0
 .00108343,0.00009645,-0.00008314,-0.00042924,0.00887841,-0.01768803,0.
 02989104,-0.00508820,0.00044161,0.00347946,-0.00061669,-0.00108437,0.0
 0019685,-0.00070446,-0.00137539,0.00539861,-0.00001729,0.00012504,-0.0
 0083371,0.00007237,0.00019893,-0.00041016,-0.09816075,0.08955743,-0.11
 602689,0.10050094,0.00002613,0.01337814,-0.00420100,-0.00128590,-0.001
 84933,-0.00060702,0.00123201,-0.00046221,0.00037359,0.00258438,-0.0017
 9254,0.00097816,0.00012486,0.00007081,0.00016909,0.00462773,-0.0016151
 6,0.00301615,-0.00358305,0.00031128,-0.00094957,-0.00217436,-0.0019099
 6,-0.00263029,-0.00026006,0.00031529,-0.00051573,-0.00462902,0.0015793
 9,0.00674230,0.00003894,-0.00069288,-0.00137405,0.00032568,-0.00036943
 ,0.00000165,0.00214889,0.00296128,-0.00648232,0.00005166,-0.00051758,0
 .00079563,-0.00035763,-0.00080875,0.00084625,0.08050706,-0.17248779,0.
 20946384,-0.07537981,0.16871934,-0.01213870,-0.00041450,-0.00348247,0.
 00098697,-0.00033389,-0.00189498,-0.00003615,-0.00026824,0.00092754,0.
 00134408,-0.00066187,0.00048797,-0.00004764,-0.00001125,0.00011399,0.0
 0365417,0.00437530,-0.00071930,-0.00185351,0.00058848,-0.00070612,0.00
 016251,-0.00024121,0.00015457,-0.00005742,0.00007263,-0.00003541,0.000
 79894,0.01725854,-0.02728661,0.00388999,0.00005969,-0.00118240,-0.0008
 4926,-0.00015376,0.00129605,-0.00122172,-0.00051153,-0.00172018,0.0001
 9464,0.00008690,-0.00026399,-0.00043852,0.00101272,0.00010994,-0.08851
 104,0.18840191,-0.27889443,0.09559101,-0.20829711,0.31305396,-0.000083
 27,-0.01252088,0.00370204,-0.00039657,0.00241101,0.00066160,-0.0001759
 8,-0.00012139,-0.00013094,-0.00803338,0.00267557,-0.00379163,0.0000626
 4,0.00013931,-0.00044686,-0.03119181,0.00335096,-0.00403898,0.00807608
 ,0.00106307,0.00359912,0.00058306,0.00194982,-0.00199515,-0.00002725,-
 0.00018497,0.00050028,-0.00424538,0.00940572,0.00022337,0.00088382,0.0
 0110697,0.00035758,0.00008561,0.00099947,0.00017521,-0.09305919,-0.023
 85224,0.01203683,0.00503757,0.01276175,-0.01442831,0.00554593,-0.02288
 385,0.03041539,0.00419162,0.00728930,-0.00705953,-0.00009370,-0.003734
 27,-0.00193908,0.49025257,-0.00573293,-0.01073504,0.00113570,0.0012204
 9,0.00171565,-0.00019089,-0.00068274,0.00022870,0.00027787,-0.00224506
 ,0.00124935,-0.00130736,-0.00005956,-0.00014921,-0.00014745,-0.0078769
 0,0.00954470,-0.00101952,0.00217117,0.00036811,0.00097374,0.00167480,0
 .00195581,-0.00015106,0.00003096,-0.00015244,0.00012602,0.00707882,-0.
 03207924,0.04192734,0.00237715,-0.00724934,-0.00316465,-0.00085081,0.0
 0260956,-0.00031241,0.00093402,-0.11866033,0.08797766,0.00275442,0.006
 89590,0.00006204,-0.00393743,-0.00554697,0.01159851,0.00419771,-0.0011
 1577,0.00608991,-0.00445542,0.00136766,0.00153642,0.15206101,0.2298828
 1,-0.00047516,0.00325384,-0.00472699,0.00017971,-0.00054208,0.00067402
 ,-0.00006731,0.00011242,-0.00016951,0.00214502,-0.00099043,0.00101434,
 0.00009506,-0.00006777,0.00008211,0.00457874,-0.00125096,0.00590337,-0
 .00249375,-0.00004601,-0.00074501,-0.00137988,-0.00030111,0.00240111,0
 .00030116,-0.00003112,-0.00018029,0.00168784,0.01790002,-0.01028855,0.
 00042337,0.00070857,0.00116727,0.00008513,0.00159422,0.00194021,-0.025
 28189,0.07147356,-0.19886040,-0.00024544,0.02396855,-0.03505689,0.0027
 4537,0.01430484,-0.01759338,0.00230380,-0.00757881,0.00697438,-0.00559
 868,0.00578277,-0.00067643,-0.00729226,-0.15671402,0.28948453,0.000759
 34,0.02207724,-0.00512701,0.00015090,-0.00416417,-0.00078458,0.0006293
 1,0.00001722,0.00004484,0.01102446,-0.00351827,0.00502172,-0.00004998,
 -0.00008521,0.00056308,0.01200393,-0.00973046,0.00440813,-0.01101159,-
 0.00140463,-0.00445982,-0.00142255,-0.00342236,0.00281706,0.00006490,0
 .00021778,-0.00075290,0.00352007,0.00082990,-0.00517568,-0.00068177,0.
 00113145,0.00046662,-0.00042564,-0.00018689,0.00044475,0.00118319,-0.0
 0399015,0.00813841,0.00026947,0.00162797,-0.00432677,0.00141919,0.0013
 1260,-0.00189382,-0.00800188,-0.00202197,0.00044306,0.00472775,-0.0002
 6327,0.00047073,-0.37741237,-0.14865971,0.02828917,0.36325328,0.006062
 69,0.00165787,0.00085650,-0.00057602,-0.00063840,-0.00000200,0.0003600
 1,-0.00017403,-0.00008598,-0.00089198,0.00068618,-0.00041521,-0.000021
 81,0.00018118,-0.00002430,-0.00366689,-0.01070374,-0.00028869,0.001659
 08,-0.00030941,0.00083744,-0.00056716,-0.00046363,-0.00029531,-0.00000
 602,0.00008864,0.00000621,-0.00281771,-0.00207498,0.00297386,0.0004607
 4,0.00002616,-0.00024882,0.00008754,0.00022489,0.00000751,-0.02099343,
 -0.01359485,0.00680877,0.00048690,0.00210744,-0.00071583,0.00158902,-0
 .00017671,-0.00015413,-0.00106137,0.00061532,-0.00117184,0.00157984,-0
 .00619756,-0.00249925,-0.13191636,-0.08012993,0.02842352,0.15023294,0.
 10887556,-0.00100163,0.00149191,0.00092863,0.00005370,-0.00044293,-0.0
 0039278,0.00009477,-0.00007988,0.00010199,-0.00045601,0.00006286,0.000
 65484,-0.00026153,0.00002620,-0.00008291,0.00230079,-0.00054236,-0.007
 53206,0.00028220,0.00010682,-0.00085840,0.00030573,-0.00012295,-0.0004
 3195,-0.00008297,0.00005521,-0.00000800,-0.00043338,0.00010412,-0.0004
 1859,0.00015031,0.00010236,-0.00000011,0.00010082,-0.00012314,-0.00020
 977,0.03723781,0.02126943,-0.01315926,0.00098592,-0.00019262,0.0004853
 0,-0.00000427,0.00420208,-0.00550825,-0.00019860,-0.00009449,-0.000031
 56,0.00006200,-0.00311235,0.00071828,-0.01054868,0.01130215,-0.0413438
 9,-0.02858700,-0.03401242,0.06708849\\-0.00000019,-0.00000016,0.000001
 35,0.00000143,0.00000025,0.00000214,0.00000141,0.00000061,0.00000117,0
 .00000018,-0.00000085,0.00000342,0.00000052,-0.00000017,0.00000434,0.0
 0000084,0.00000007,0.00000145,0.00000022,0.00000033,0.00000260,-0.0000
 0119,-0.00000072,0.00000077,-0.00000229,-0.00000099,0.00000171,-0.0000
 0025,0.00000004,-0.00000211,-0.00000134,-0.00000031,-0.00000209,0.0000
 0021,0.00000032,-0.00000333,-0.00000018,-0.00000023,-0.00000246,-0.000
 00212,-0.00000001,-0.00000123,-0.00000103,-0.00000013,-0.00000330,0.00
 000100,0.00000030,-0.00000105,0.00000098,0.00000125,-0.00000087,0.0000
 0085,-0.00000003,-0.00000195,0.00000095,0.00000043,-0.00000057\\\@
 The archive entry for this job was punched.


 WE THE UNWILLING
 LED BY THE UNQUALIFIED
 HAVE BEEN DOING THE UNBELIEVABLE SO LONG WITH SO LITTLE
 THAT WE NOW ATTEMPT THE IMPOSSIBLE WITH NOTHING.

                                    -- ANONYMOUS
 Job cpu time:       0 days  4 hours  1 minutes 12.7 seconds.
 Elapsed time:       0 days  0 hours 15 minutes 12.6 seconds.
 File lengths (MBytes):  RWF=    301 Int=      0 D2E=      0 Chk=     16 Scr=      1
 Normal termination of Gaussian 16 at Wed Nov  1 15:44:07 2023.
