 Entering Gaussian System, Link 0=/opt/software/gaussian/g16.c01/g16
 Initial command:
 /opt/software/gaussian/g16.c01/l1.exe "/scratch/arhender/13750254/Gau-70512.inp" -scrdir="/scratch/arhender/13750254/"
 Entering Link 1 = /opt/software/gaussian/g16.c01/l1.exe PID=     70513.
  
 Copyright (c) 1988-2019, Gaussian, Inc.  All Rights Reserved.
  
 This is part of the Gaussian(R) 16 program.  It is based on
 the Gaussian(R) 09 system (copyright 2009, Gaussian, Inc.),
 the Gaussian(R) 03 system (copyright 2003, Gaussian, Inc.),
 the Gaussian(R) 98 system (copyright 1998, Gaussian, Inc.),
 the Gaussian(R) 94 system (copyright 1995, Gaussian, Inc.),
 the Gaussian 92(TM) system (copyright 1992, Gaussian, Inc.),
 the Gaussian 90(TM) system (copyright 1990, Gaussian, Inc.),
 the Gaussian 88(TM) system (copyright 1988, Gaussian, Inc.),
 the Gaussian 86(TM) system (copyright 1986, Carnegie Mellon
 University), and the Gaussian 82(TM) system (copyright 1983,
 Carnegie Mellon University). Gaussian is a federally registered
 trademark of Gaussian, Inc.
  
 This software contains proprietary and confidential information,
 including trade secrets, belonging to Gaussian, Inc.
  
 This software is provided under written license and may be
 used, copied, transmitted, or stored only in accord with that
 written license.
  
 The following legend is applicable only to US Government
 contracts under FAR:
  
                    RESTRICTED RIGHTS LEGEND
  
 Use, reproduction and disclosure by the US Government is
 subject to restrictions as set forth in subparagraphs (a)
 and (c) of the Commercial Computer Software - Restricted
 Rights clause in FAR 52.227-19.
  
 Gaussian, Inc.
 340 Quinnipiac St., Bldg. 40, Wallingford CT 06492
  
  
 ---------------------------------------------------------------
 Warning -- This program may not be used in any manner that
 competes with the business of Gaussian, Inc. or will provide
 assistance to any competitor of Gaussian, Inc.  The licensee
 of this program is prohibited from giving any competitor of
 Gaussian, Inc. access to this program.  By using this program,
 the user acknowledges that Gaussian, Inc. is engaged in the
 business of creating and licensing software in the field of
 computational chemistry and represents and warrants to the
 licensee that it is not a competitor of Gaussian, Inc. and that
 it will not use this program in any manner prohibited above.
 ---------------------------------------------------------------
  

 Cite this work as:
 Gaussian 16, Revision C.01,
 M. J. Frisch, G. W. Trucks, H. B. Schlegel, G. E. Scuseria, 
 M. A. Robb, J. R. Cheeseman, G. Scalmani, V. Barone, 
 G. A. Petersson, H. Nakatsuji, X. Li, M. Caricato, A. V. Marenich, 
 J. Bloino, B. G. Janesko, R. Gomperts, B. Mennucci, H. P. Hratchian, 
 J. V. Ortiz, A. F. Izmaylov, J. L. Sonnenberg, D. Williams-Young, 
 F. Ding, F. Lipparini, F. Egidi, J. Goings, B. Peng, A. Petrone, 
 T. Henderson, D. Ranasinghe, V. G. Zakrzewski, J. Gao, N. Rega, 
 G. Zheng, W. Liang, M. Hada, M. Ehara, K. Toyota, R. Fukuda, 
 J. Hasegawa, M. Ishida, T. Nakajima, Y. Honda, O. Kitao, H. Nakai, 
 T. Vreven, K. Throssell, J. A. Montgomery, Jr., J. E. Peralta, 
 F. Ogliaro, M. J. Bearpark, J. J. Heyd, E. N. Brothers, K. N. Kudin, 
 V. N. Staroverov, T. A. Keith, R. Kobayashi, J. Normand, 
 K. Raghavachari, A. P. Rendell, J. C. Burant, S. S. Iyengar, 
 J. Tomasi, M. Cossi, J. M. Millam, M. Klene, C. Adamo, R. Cammi, 
 J. W. Ochterski, R. L. Martin, K. Morokuma, O. Farkas, 
 J. B. Foresman, and D. J. Fox, Gaussian, Inc., Wallingford CT, 2019.
 
 ******************************************
 Gaussian 16:  ES64L-G16RevC.01  3-Jul-2019
                 2-Oct-2023 
 ******************************************
 %chk=TSoptfromFrozenCalcAll.chk
 %mem=8GB
 %nprocs=16
 Will use up to   16 processors via shared memory.
 ------------------------------------------------------------------
 # opt=(calcall,ts,noeigen) freq wb97xd/def2tzvpp geom=connectivity
 ------------------------------------------------------------------
 1/5=1,10=4,11=1,18=20,26=3,38=1,57=2/1,3;
 2/9=110,12=2,17=6,18=5,40=1/2;
 3/5=44,7=202,11=2,25=1,30=1,71=2,74=-58,140=1/1,2,3;
 4//1;
 5/5=2,38=5/2;
 8/6=4,10=90,11=11/1;
 11/6=1,8=1,9=11,15=111,16=1/1,2,10;
 10/6=1/2;
 6/7=2,8=2,9=2,10=2,18=1,28=1/1;
 7/10=1,25=1/1,2,3,16;
 1/5=1,10=4,11=1,18=20,26=3/3(3);
 2/9=110/2;
 7/8=1,9=1,25=1,44=-1/16;
 99//99;
 2/9=110/2;
 3/5=44,7=202,11=2,25=1,30=1,71=2,74=-58,140=1/1,2,3;
 4/5=5,16=3,69=1/1;
 5/5=2,38=5/2;
 8/6=4,10=90,11=11/1;
 11/6=1,8=1,9=11,15=111,16=1/1,2,10;
 10/6=1/2;
 7/10=1,25=1/1,2,3,16;
 1/5=1,10=4,11=1,18=20,26=3/3(-8);
 2/9=110/2;
 6/7=2,8=2,9=2,10=2,18=1,19=2,28=1/1;
 7/8=1,9=1,25=1,44=-1/16;
 99//99;
 --------------------------------------------------------
 SiOH4 TS opt from frozen result calc all force constants
 --------------------------------------------------------
 Symbolic Z-matrix:
 Charge =  0 Multiplicity = 1
 C                    -1.62072   0.5873   -0.77641 
 H                    -0.70696   0.9308   -1.26343 
 H                    -2.43829   0.70871  -1.49061 
 C                    -1.5484   -0.85537  -0.39886 
 H                    -1.22704  -1.12877   0.5875 
 H                    -1.73329  -1.62539  -1.12859 
 O                    -1.8294    1.362     0.37818 
 H                    -2.61268   0.92196   0.76874 
 O                    -3.55064  -0.65688   0.34456 
 H                    -3.58817  -1.35597   0.99874 
 Si                    1.49427  -0.01439   0.07732 
 O                     1.91007   1.16721  -0.96077 
 H                     2.34446   0.92763  -1.77576 
 O                     0.69182   0.63534   1.30814 
 H                    -0.16791   1.06868   1.15931 
 O                     0.55066  -1.10911  -0.76022 
 H                     0.82399  -2.02062  -0.65904 
 O                     2.74625  -0.90316   0.61673 
 H                     3.25087  -0.58044   1.35941 
 

 GradGradGradGradGradGradGradGradGradGradGradGradGradGradGradGradGradGrad
 Berny optimization.
 Initialization pass.
                           ----------------------------
                           !    Initial Parameters    !
                           ! (Angstroms and Degrees)  !
 --------------------------                            --------------------------
 ! Name  Definition              Value          Derivative Info.                !
 --------------------------------------------------------------------------------
 ! R1    R(1,2)                  1.0909         calculate D2E/DX2 analytically  !
 ! R2    R(1,3)                  1.0924         calculate D2E/DX2 analytically  !
 ! R3    R(1,4)                  1.493          calculate D2E/DX2 analytically  !
 ! R4    R(1,7)                  1.406          calculate D2E/DX2 analytically  !
 ! R5    R(4,5)                  1.0728         calculate D2E/DX2 analytically  !
 ! R6    R(4,6)                  1.0769         calculate D2E/DX2 analytically  !
 ! R7    R(4,9)                  2.145          calculate D2E/DX2 analytically  !
 ! R8    R(4,16)                 2.145          calculate D2E/DX2 analytically  !
 ! R9    R(7,8)                  0.9796         calculate D2E/DX2 analytically  !
 ! R10   R(9,10)                 0.9582         calculate D2E/DX2 analytically  !
 ! R11   R(11,12)                1.6269         calculate D2E/DX2 analytically  !
 ! R12   R(11,14)                1.6065         calculate D2E/DX2 analytically  !
 ! R13   R(11,16)                1.6704         calculate D2E/DX2 analytically  !
 ! R14   R(11,18)                1.6274         calculate D2E/DX2 analytically  !
 ! R15   R(12,13)                0.9541         calculate D2E/DX2 analytically  !
 ! R16   R(14,15)                0.9742         calculate D2E/DX2 analytically  !
 ! R17   R(16,17)                0.957          calculate D2E/DX2 analytically  !
 ! R18   R(18,19)                0.9541         calculate D2E/DX2 analytically  !
 ! A1    A(2,1,3)              107.4591         calculate D2E/DX2 analytically  !
 ! A2    A(2,1,4)              112.1216         calculate D2E/DX2 analytically  !
 ! A3    A(2,1,7)              108.5079         calculate D2E/DX2 analytically  !
 ! A4    A(3,1,4)              107.9976         calculate D2E/DX2 analytically  !
 ! A5    A(3,1,7)              111.382          calculate D2E/DX2 analytically  !
 ! A6    A(4,1,7)              109.3868         calculate D2E/DX2 analytically  !
 ! A7    A(1,4,5)              119.5552         calculate D2E/DX2 analytically  !
 ! A8    A(1,4,6)              120.7488         calculate D2E/DX2 analytically  !
 ! A9    A(1,4,9)               87.3071         calculate D2E/DX2 analytically  !
 ! A10   A(1,4,16)              96.8402         calculate D2E/DX2 analytically  !
 ! A11   A(5,4,6)              119.488          calculate D2E/DX2 analytically  !
 ! A12   A(5,4,9)               89.114          calculate D2E/DX2 analytically  !
 ! A13   A(5,4,16)              80.3059         calculate D2E/DX2 analytically  !
 ! A14   A(6,4,9)               98.0923         calculate D2E/DX2 analytically  !
 ! A15   A(6,4,16)              88.2388         calculate D2E/DX2 analytically  !
 ! A16   A(1,7,8)              101.4533         calculate D2E/DX2 analytically  !
 ! A17   A(4,9,10)             101.8687         calculate D2E/DX2 analytically  !
 ! A18   A(12,11,14)           108.8314         calculate D2E/DX2 analytically  !
 ! A19   A(12,11,16)           107.4833         calculate D2E/DX2 analytically  !
 ! A20   A(12,11,18)           114.3014         calculate D2E/DX2 analytically  !
 ! A21   A(14,11,16)           111.5321         calculate D2E/DX2 analytically  !
 ! A22   A(14,11,18)           110.561          calculate D2E/DX2 analytically  !
 ! A23   A(16,11,18)           104.0556         calculate D2E/DX2 analytically  !
 ! A24   A(11,12,13)           118.6229         calculate D2E/DX2 analytically  !
 ! A25   A(11,14,15)           120.242          calculate D2E/DX2 analytically  !
 ! A26   A(4,16,11)            113.0045         calculate D2E/DX2 analytically  !
 ! A27   A(4,16,17)            111.9849         calculate D2E/DX2 analytically  !
 ! A28   A(11,16,17)           114.1967         calculate D2E/DX2 analytically  !
 ! A29   A(11,18,19)           118.6958         calculate D2E/DX2 analytically  !
 ! A30   L(9,4,16,1,-1)        184.1472         calculate D2E/DX2 analytically  !
 ! A31   L(9,4,16,1,-2)        170.1584         calculate D2E/DX2 analytically  !
 ! D1    D(2,1,4,5)             93.8454         calculate D2E/DX2 analytically  !
 ! D2    D(2,1,4,6)            -80.8871         calculate D2E/DX2 analytically  !
 ! D3    D(2,1,4,9)           -178.7032         calculate D2E/DX2 analytically  !
 ! D4    D(2,1,4,16)            11.1384         calculate D2E/DX2 analytically  !
 ! D5    D(3,1,4,5)           -147.9522         calculate D2E/DX2 analytically  !
 ! D6    D(3,1,4,6)             37.3154         calculate D2E/DX2 analytically  !
 ! D7    D(3,1,4,9)            -60.5008         calculate D2E/DX2 analytically  !
 ! D8    D(3,1,4,16)           129.3408         calculate D2E/DX2 analytically  !
 ! D9    D(7,1,4,5)            -26.5725         calculate D2E/DX2 analytically  !
 ! D10   D(7,1,4,6)            158.695          calculate D2E/DX2 analytically  !
 ! D11   D(7,1,4,9)             60.8789         calculate D2E/DX2 analytically  !
 ! D12   D(7,1,4,16)          -109.2795         calculate D2E/DX2 analytically  !
 ! D13   D(2,1,7,8)           -175.1605         calculate D2E/DX2 analytically  !
 ! D14   D(3,1,7,8)             66.7506         calculate D2E/DX2 analytically  !
 ! D15   D(4,1,7,8)            -52.5599         calculate D2E/DX2 analytically  !
 ! D16   D(1,4,9,10)          -154.9278         calculate D2E/DX2 analytically  !
 ! D17   D(5,4,9,10)           -35.2849         calculate D2E/DX2 analytically  !
 ! D18   D(6,4,9,10)            84.3884         calculate D2E/DX2 analytically  !
 ! D19   D(1,4,16,11)           54.8889         calculate D2E/DX2 analytically  !
 ! D20   D(1,4,16,17)         -174.4482         calculate D2E/DX2 analytically  !
 ! D21   D(5,4,16,11)          -64.0255         calculate D2E/DX2 analytically  !
 ! D22   D(5,4,16,17)           66.6374         calculate D2E/DX2 analytically  !
 ! D23   D(6,4,16,11)          175.6524         calculate D2E/DX2 analytically  !
 ! D24   D(6,4,16,17)          -53.6848         calculate D2E/DX2 analytically  !
 ! D25   D(14,11,12,13)       -175.9829         calculate D2E/DX2 analytically  !
 ! D26   D(16,11,12,13)        -55.0535         calculate D2E/DX2 analytically  !
 ! D27   D(18,11,12,13)         59.8826         calculate D2E/DX2 analytically  !
 ! D28   D(12,11,14,15)         64.0679         calculate D2E/DX2 analytically  !
 ! D29   D(16,11,14,15)        -54.3431         calculate D2E/DX2 analytically  !
 ! D30   D(18,11,14,15)       -169.6105         calculate D2E/DX2 analytically  !
 ! D31   D(12,11,16,4)        -100.1211         calculate D2E/DX2 analytically  !
 ! D32   D(12,11,16,17)        130.3359         calculate D2E/DX2 analytically  !
 ! D33   D(14,11,16,4)          19.0936         calculate D2E/DX2 analytically  !
 ! D34   D(14,11,16,17)       -110.4494         calculate D2E/DX2 analytically  !
 ! D35   D(18,11,16,4)         138.302          calculate D2E/DX2 analytically  !
 ! D36   D(18,11,16,17)          8.7589         calculate D2E/DX2 analytically  !
 ! D37   D(12,11,18,19)         84.1303         calculate D2E/DX2 analytically  !
 ! D38   D(14,11,18,19)        -39.0747         calculate D2E/DX2 analytically  !
 ! D39   D(16,11,18,19)       -158.9425         calculate D2E/DX2 analytically  !
 --------------------------------------------------------------------------------
 Trust Radius=3.00D-01 FncErr=1.00D-07 GrdErr=1.00D-06 EigMax=2.50D+02 EigMin=1.00D-04
 Number of steps in this run=     98 maximum allowed number of steps=    114.
 Search for a saddle point of order  1.
 GradGradGradGradGradGradGradGradGradGradGradGradGradGradGradGradGradGrad

                          Input orientation:                          
 ---------------------------------------------------------------------
 Center     Atomic      Atomic             Coordinates (Angstroms)
 Number     Number       Type             X           Y           Z
 ---------------------------------------------------------------------
      1          6           0       -1.620715    0.587305   -0.776415
      2          1           0       -0.706965    0.930799   -1.263427
      3          1           0       -2.438287    0.708707   -1.490613
      4          6           0       -1.548403   -0.855369   -0.398863
      5          1           0       -1.227045   -1.128770    0.587504
      6          1           0       -1.733288   -1.625387   -1.128593
      7          8           0       -1.829404    1.361998    0.378181
      8          1           0       -2.612683    0.921962    0.768735
      9          8           0       -3.550640   -0.656878    0.344558
     10          1           0       -3.588169   -1.355975    0.998735
     11         14           0        1.494265   -0.014387    0.077321
     12          8           0        1.910066    1.167209   -0.960770
     13          1           0        2.344464    0.927626   -1.775757
     14          8           0        0.691818    0.635344    1.308135
     15          1           0       -0.167910    1.068683    1.159309
     16          8           0        0.550660   -1.109108   -0.760221
     17          1           0        0.823987   -2.020619   -0.659042
     18          8           0        2.746252   -0.903164    0.616730
     19          1           0        3.250874   -0.580440    1.359411
 ---------------------------------------------------------------------
                    Distance matrix (angstroms):
                    1          2          3          4          5
     1  C    0.000000
     2  H    1.090921   0.000000
     3  H    1.092355   1.760231   0.000000
     4  C    1.493011   2.155432   2.104791   0.000000
     5  H    2.227142   2.817490   3.026879   1.072818   0.000000
     6  H    2.243369   2.757826   2.464970   1.076854   1.856851
     7  O    1.405984   2.034866   2.071211   2.366321   2.571104
     8  H    1.866409   2.785951   2.276081   2.378000   2.481600
     9  O    2.555226   3.632192   2.543620   2.145000   2.383442
    10  H    3.286087   4.318339   3.432491   2.522803   2.407413
    11  Si   3.285422   2.745249   4.294909   3.192465   2.984571
    12  O    3.582833   2.645060   4.404444   4.045685   4.184511
    13  H    4.103310   3.094142   4.796242   4.497702   4.750731
    14  O    3.113754   2.942247   4.199515   3.186638   2.704338
    15  H    2.467670   2.485808   3.508030   2.834720   2.505499
    16  O    2.755530   2.448684   3.573755   2.145000   2.230915
    17  H    3.576536   3.379343   4.333954   2.655887   2.560469
    18  O    4.820037   4.338562   5.823956   4.413363   3.979804
    19  H    5.445894   4.982732   6.492387   5.118611   4.576927
                    6          7          8          9         10
     6  H    0.000000
     7  O    3.347249   0.000000
     8  H    3.295782   0.979637   0.000000
     9  O    2.531985   2.653232   1.884788   0.000000
    10  H    2.835258   3.296318   2.488668   0.958171   0.000000
    11  Si   3.803505   3.609949   4.268703   5.092669   5.336665
    12  O    4.593559   3.976729   4.848360   5.903430   6.358986
    13  H    4.854355   4.716917   5.572054   6.462093   6.936049
    14  O    4.114570   2.783775   3.360481   4.538366   4.730683
    15  H    3.865607   1.859236   2.480119   3.883843   4.195583
    16  O    2.370371   3.614834   4.058286   4.271499   4.503862
    17  H    2.629894   4.422489   4.744263   4.690880   4.759947
    18  O    4.861485   5.111213   5.663248   6.307581   6.362064
    19  H    5.667799   5.526763   6.081728   6.877235   6.892318
                   11         12         13         14         15
    11  Si   0.000000
    12  O    1.626865   0.000000
    13  H    2.245913   0.954099   0.000000
    14  O    1.606541   2.629627   3.510991   0.000000
    15  H    2.259771   2.970257   3.866075   0.974199   0.000000
    16  O    1.670414   2.658914   2.897815   2.709453   2.990604
    17  H    2.239748   3.381250   3.500150   3.307778   3.719415
    18  O    1.627378   2.733890   3.039279   2.658147   3.560184
    19  H    2.247187   3.199263   3.595153   2.833642   3.801017
                   16         17         18         19
    16  O    0.000000
    17  H    0.956973   0.000000
    18  O    2.599815   2.563475   0.000000
    19  H    3.473253   3.469589   0.954132   0.000000
 Stoichiometry    C2H10O6Si
 Framework group  C1[X(C2H10O6Si)]
 Deg. of freedom    51
 Full point group                 C1      NOp   1
 Largest Abelian subgroup         C1      NOp   1
 Largest concise Abelian subgroup C1      NOp   1
                         Standard orientation:                         
 ---------------------------------------------------------------------
 Center     Atomic      Atomic             Coordinates (Angstroms)
 Number     Number       Type             X           Y           Z
 ---------------------------------------------------------------------
      1          6           0        1.620715    0.587305    0.776415
      2          1           0        0.706965    0.930799    1.263427
      3          1           0        2.438287    0.708707    1.490613
      4          6           0        1.548403   -0.855369    0.398863
      5          1           0        1.227045   -1.128770   -0.587504
      6          1           0        1.733288   -1.625387    1.128593
      7          8           0        1.829404    1.361998   -0.378181
      8          1           0        2.612683    0.921962   -0.768735
      9          8           0        3.550640   -0.656878   -0.344558
     10          1           0        3.588169   -1.355975   -0.998735
     11         14           0       -1.494265   -0.014387   -0.077321
     12          8           0       -1.910066    1.167209    0.960770
     13          1           0       -2.344464    0.927626    1.775757
     14          8           0       -0.691818    0.635344   -1.308135
     15          1           0        0.167910    1.068683   -1.159309
     16          8           0       -0.550660   -1.109108    0.760221
     17          1           0       -0.823987   -2.020619    0.659042
     18          8           0       -2.746252   -0.903164   -0.616730
     19          1           0       -3.250874   -0.580440   -1.359411
 ---------------------------------------------------------------------
 Rotational constants (GHZ):           2.4089530           0.7200971           0.6810939
 Standard basis: def2TZVPP (5D, 7F)
 There are   486 symmetry adapted cartesian basis functions of A   symmetry.
 There are   430 symmetry adapted basis functions of A   symmetry.
   430 basis functions,   647 primitive gaussians,   486 cartesian basis functions
    42 alpha electrons       42 beta electrons
       nuclear repulsion energy       634.6739932002 Hartrees.
 NAtoms=   19 NActive=   19 NUniq=   19 SFac= 1.00D+00 NAtFMM=   60 NAOKFM=F Big=F
 Integral buffers will be    131072 words long.
 Raffenetti 2 integral format.
 Two-electron integral symmetry is turned on.
 Nuclear repulsion after empirical dispersion term =      634.6630612599 Hartrees.
 One-electron integrals computed using PRISM.
   1 Symmetry operations used in ECPInt.
 ECPInt:  NShTT=   13203 NPrTT=   36019 LenC2=   12475 LenP2D=   26626.
 LDataN:  DoStor=T MaxTD1= 6 Len=  172
 NBasis=   430 RedAO= T EigKep=  1.65D-04  NBF=   430
 NBsUse=   430 1.00D-06 EigRej= -1.00D+00 NBFU=   430
 ExpMin= 7.01D-02 ExpMax= 4.48D+04 ExpMxC= 1.53D+03 IAcc=3 IRadAn=         5 AccDes= 0.00D+00
 Harris functional with IExCor= 4639 and IRadAn=       5 diagonalized for initial guess.
 HarFok:  IExCor= 4639 AccDes= 0.00D+00 IRadAn=         5 IDoV= 1 UseB2=F ITyADJ=14
 ICtDFT=  3500011 ScaDFX=  1.000000  1.000000  1.000000  1.000000
 FoFCou: FMM=F IPFlag=           0 FMFlag=      100000 FMFlg1=           0
         NFxFlg=           0 DoJE=T BraDBF=F KetDBF=T FulRan=T
         wScrn=  0.000000 ICntrl=       500 IOpCl=  0 I1Cent=   200000004 NGrid=           0
         NMat0=    1 NMatS0=      1 NMatT0=    0 NMatD0=    1 NMtDS0=    0 NMtDT0=    0
 Petite list used in FoFCou.
 Requested convergence on RMS density matrix=1.00D-08 within 128 cycles.
 Requested convergence on MAX density matrix=1.00D-06.
 Requested convergence on             energy=1.00D-06.
 No special actions if energy rises.
 Integral accuracy reduced to 1.0D-05 until final iterations.
 Initial convergence to 1.0D-05 achieved.  Increase integral accuracy.
 SCF Done:  E(RwB97XD) =  -823.269684127     A.U. after   15 cycles
            NFock= 15  Conv=0.75D-08     -V/T= 2.0035
 DoSCS=F DFT=T ScalE2(SS,OS)=  1.000000  1.000000
 Range of M.O.s used for correlation:     1   430
 NBasis=   430 NAE=    42 NBE=    42 NFC=     0 NFV=     0
 NROrb=    430 NOA=    42 NOB=    42 NVA=   388 NVB=   388

 **** Warning!!: The largest alpha MO coefficient is  0.16590102D+02

   1 Symmetry operations used in ECPInt.
 ECPInt:  NShTT=   13203 NPrTT=   36019 LenC2=   12475 LenP2D=   26626.
 LDataN:  DoStor=T MaxTD1= 7 Len=  274
 Number of processors reduced to  12 by ecpmxn.
 Symmetrizing basis deriv contribution to polar:
 IMax=3 JMax=2 DiffMx= 0.00D+00
 G2DrvN: will do    20 centers at a time, making    1 passes.
 Calling FoFCou, ICntrl=  3107 FMM=F I1Cent=   0 AccDes= 0.00D+00.
 End of G2Drv F.D. properties file   721 does not exist.
 End of G2Drv F.D. properties file   722 does not exist.
 End of G2Drv F.D. properties file   788 does not exist.
          IDoAtm=1111111111111111111
          Differentiating once with respect to electric field.
                with respect to dipole field.
          Differentiating once with respect to nuclear coordinates.
 CalDSu exits because no D1Ps are significant.
          There are    60 degrees of freedom in the 1st order CPHF.  IDoFFX=6 NUNeed=     3.
     57 vectors produced by pass  0 Test12= 2.72D-14 1.67D-09 XBig12= 4.39D+01 4.67D+00.
 AX will form    57 AO Fock derivatives at one time.
     57 vectors produced by pass  1 Test12= 2.72D-14 1.67D-09 XBig12= 7.71D+00 5.63D-01.
     57 vectors produced by pass  2 Test12= 2.72D-14 1.67D-09 XBig12= 3.03D-01 1.42D-01.
     57 vectors produced by pass  3 Test12= 2.72D-14 1.67D-09 XBig12= 3.50D-03 7.02D-03.
     57 vectors produced by pass  4 Test12= 2.72D-14 1.67D-09 XBig12= 3.38D-05 7.91D-04.
     57 vectors produced by pass  5 Test12= 2.72D-14 1.67D-09 XBig12= 2.27D-07 4.96D-05.
     57 vectors produced by pass  6 Test12= 2.72D-14 1.67D-09 XBig12= 1.41D-09 3.27D-06.
     18 vectors produced by pass  7 Test12= 2.72D-14 1.67D-09 XBig12= 9.01D-12 3.87D-07.
      3 vectors produced by pass  8 Test12= 2.72D-14 1.67D-09 XBig12= 5.10D-14 4.15D-08.
      1 vectors produced by pass  9 Test12= 2.72D-14 1.67D-09 XBig12= 3.48D-16 3.80D-09.
 InvSVY:  IOpt=1 It=  1 EMax= 2.66D-15
 Solved reduced A of dimension   421 with    60 vectors.
 Isotropic polarizability for W=    0.000000       80.01 Bohr**3.
 End of Minotr F.D. properties file   721 does not exist.
 End of Minotr F.D. properties file   722 does not exist.
 End of Minotr F.D. properties file   788 does not exist.

 **********************************************************************

            Population analysis using the SCF Density.

 **********************************************************************

 Orbital symmetries:
       Occupied  (A) (A) (A) (A) (A) (A) (A) (A) (A) (A) (A) (A)
                 (A) (A) (A) (A) (A) (A) (A) (A) (A) (A) (A) (A)
                 (A) (A) (A) (A) (A) (A) (A) (A) (A) (A) (A) (A)
                 (A) (A) (A) (A) (A) (A)
       Virtual   (A) (A) (A) (A) (A) (A) (A) (A) (A) (A) (A) (A)
                 (A) (A) (A) (A) (A) (A) (A) (A) (A) (A) (A) (A)
                 (A) (A) (A) (A) (A) (A) (A) (A) (A) (A) (A) (A)
                 (A) (A) (A) (A) (A) (A) (A) (A) (A) (A) (A) (A)
                 (A) (A) (A) (A) (A) (A) (A) (A) (A) (A) (A) (A)
                 (A) (A) (A) (A) (A) (A) (A) (A) (A) (A) (A) (A)
                 (A) (A) (A) (A) (A) (A) (A) (A) (A) (A) (A) (A)
                 (A) (A) (A) (A) (A) (A) (A) (A) (A) (A) (A) (A)
                 (A) (A) (A) (A) (A) (A) (A) (A) (A) (A) (A) (A)
                 (A) (A) (A) (A) (A) (A) (A) (A) (A) (A) (A) (A)
                 (A) (A) (A) (A) (A) (A) (A) (A) (A) (A) (A) (A)
                 (A) (A) (A) (A) (A) (A) (A) (A) (A) (A) (A) (A)
                 (A) (A) (A) (A) (A) (A) (A) (A) (A) (A) (A) (A)
                 (A) (A) (A) (A) (A) (A) (A) (A) (A) (A) (A) (A)
                 (A) (A) (A) (A) (A) (A) (A) (A) (A) (A) (A) (A)
                 (A) (A) (A) (A) (A) (A) (A) (A) (A) (A) (A) (A)
                 (A) (A) (A) (A) (A) (A) (A) (A) (A) (A) (A) (A)
                 (A) (A) (A) (A) (A) (A) (A) (A) (A) (A) (A) (A)
                 (A) (A) (A) (A) (A) (A) (A) (A) (A) (A) (A) (A)
                 (A) (A) (A) (A) (A) (A) (A) (A) (A) (A) (A) (A)
                 (A) (A) (A) (A) (A) (A) (A) (A) (A) (A) (A) (A)
                 (A) (A) (A) (A) (A) (A) (A) (A) (A) (A) (A) (A)
                 (A) (A) (A) (A) (A) (A) (A) (A) (A) (A) (A) (A)
                 (A) (A) (A) (A) (A) (A) (A) (A) (A) (A) (A) (A)
                 (A) (A) (A) (A) (A) (A) (A) (A) (A) (A) (A) (A)
                 (A) (A) (A) (A) (A) (A) (A) (A) (A) (A) (A) (A)
                 (A) (A) (A) (A) (A) (A) (A) (A) (A) (A) (A) (A)
                 (A) (A) (A) (A) (A) (A) (A) (A) (A) (A) (A) (A)
                 (A) (A) (A) (A) (A) (A) (A) (A) (A) (A) (A) (A)
                 (A) (A) (A) (A) (A) (A) (A) (A) (A) (A) (A) (A)
                 (A) (A) (A) (A) (A) (A) (A) (A) (A) (A) (A) (A)
                 (A) (A) (A) (A) (A) (A) (A) (A) (A) (A) (A) (A)
                 (A) (A) (A) (A)
 The electronic state is 1-A.
 Alpha  occ. eigenvalues --  -66.32655 -19.28517 -19.27118 -19.26642 -19.25247
 Alpha  occ. eigenvalues --  -19.24978 -19.18955 -10.37790 -10.34585  -5.44395
 Alpha  occ. eigenvalues --   -3.78961  -3.78888  -3.78807  -1.16226  -1.13769
 Alpha  occ. eigenvalues --   -1.12714  -1.11892  -1.10135  -0.99680  -0.86539
 Alpha  occ. eigenvalues --   -0.73390  -0.69827  -0.64954  -0.63836  -0.62389
 Alpha  occ. eigenvalues --   -0.60623  -0.57959  -0.54312  -0.52163  -0.50807
 Alpha  occ. eigenvalues --   -0.49819  -0.48608  -0.47011  -0.46663  -0.45590
 Alpha  occ. eigenvalues --   -0.45256  -0.44114  -0.42272  -0.42121  -0.37751
 Alpha  occ. eigenvalues --   -0.34097  -0.33176
 Alpha virt. eigenvalues --    0.02073   0.07341   0.10849   0.11932   0.13509
 Alpha virt. eigenvalues --    0.15030   0.16107   0.17047   0.18184   0.19703
 Alpha virt. eigenvalues --    0.20692   0.21458   0.23876   0.24204   0.24914
 Alpha virt. eigenvalues --    0.26566   0.28000   0.28384   0.29525   0.30693
 Alpha virt. eigenvalues --    0.32533   0.35464   0.37210   0.38601   0.39214
 Alpha virt. eigenvalues --    0.41461   0.42219   0.43500   0.44080   0.45654
 Alpha virt. eigenvalues --    0.46275   0.47253   0.47815   0.48975   0.49495
 Alpha virt. eigenvalues --    0.50605   0.52412   0.52950   0.53485   0.54280
 Alpha virt. eigenvalues --    0.54700   0.55506   0.56114   0.56798   0.58214
 Alpha virt. eigenvalues --    0.58585   0.60085   0.61218   0.61486   0.64783
 Alpha virt. eigenvalues --    0.65953   0.66241   0.67035   0.68633   0.70467
 Alpha virt. eigenvalues --    0.72242   0.72650   0.74582   0.75333   0.76004
 Alpha virt. eigenvalues --    0.78233   0.80099   0.80791   0.81835   0.84089
 Alpha virt. eigenvalues --    0.85387   0.87040   0.88179   0.89329   0.90300
 Alpha virt. eigenvalues --    0.90678   0.92719   0.93367   0.94358   0.96946
 Alpha virt. eigenvalues --    0.97387   0.99863   1.00943   1.01497   1.03975
 Alpha virt. eigenvalues --    1.04616   1.06536   1.07317   1.08273   1.09820
 Alpha virt. eigenvalues --    1.10917   1.13582   1.14666   1.16183   1.17909
 Alpha virt. eigenvalues --    1.19534   1.20693   1.21935   1.24238   1.26637
 Alpha virt. eigenvalues --    1.27224   1.27948   1.31009   1.31584   1.32854
 Alpha virt. eigenvalues --    1.34248   1.35216   1.35443   1.38076   1.40141
 Alpha virt. eigenvalues --    1.41361   1.42043   1.43822   1.45985   1.46374
 Alpha virt. eigenvalues --    1.47093   1.48149   1.50781   1.52375   1.53315
 Alpha virt. eigenvalues --    1.56550   1.58882   1.58973   1.60877   1.61378
 Alpha virt. eigenvalues --    1.64882   1.68638   1.72533   1.73491   1.75569
 Alpha virt. eigenvalues --    1.79009   1.80545   1.82102   1.86947   1.88831
 Alpha virt. eigenvalues --    1.90684   1.91346   1.92655   1.94207   1.95285
 Alpha virt. eigenvalues --    1.98040   1.99609   2.02481   2.02570   2.05754
 Alpha virt. eigenvalues --    2.08103   2.09690   2.10115   2.10965   2.13964
 Alpha virt. eigenvalues --    2.15028   2.17460   2.18857   2.19821   2.20247
 Alpha virt. eigenvalues --    2.22942   2.23975   2.26301   2.27274   2.28647
 Alpha virt. eigenvalues --    2.29837   2.32738   2.36371   2.38107   2.40011
 Alpha virt. eigenvalues --    2.52266   2.56322   2.58021   2.59840   2.62662
 Alpha virt. eigenvalues --    2.63236   2.65903   2.71413   2.72310   2.75719
 Alpha virt. eigenvalues --    2.76918   2.79008   2.82307   2.83837   2.86324
 Alpha virt. eigenvalues --    2.86633   2.87339   2.89858   2.90482   2.94569
 Alpha virt. eigenvalues --    2.95421   2.98201   3.00779   3.01239   3.03916
 Alpha virt. eigenvalues --    3.05406   3.07598   3.08665   3.10660   3.11820
 Alpha virt. eigenvalues --    3.14769   3.17839   3.20652   3.23262   3.24435
 Alpha virt. eigenvalues --    3.25362   3.29167   3.30748   3.31354   3.32962
 Alpha virt. eigenvalues --    3.34645   3.35750   3.37224   3.37759   3.39621
 Alpha virt. eigenvalues --    3.40557   3.40796   3.41955   3.43084   3.43798
 Alpha virt. eigenvalues --    3.44965   3.46256   3.46715   3.47694   3.50818
 Alpha virt. eigenvalues --    3.51227   3.55149   3.55826   3.61228   3.62133
 Alpha virt. eigenvalues --    3.63803   3.65435   3.67933   3.68577   3.70383
 Alpha virt. eigenvalues --    3.72823   3.73299   3.76033   3.76520   3.79404
 Alpha virt. eigenvalues --    3.81775   3.82998   3.84036   3.88081   3.88437
 Alpha virt. eigenvalues --    3.89980   3.91451   3.93679   3.95078   3.97106
 Alpha virt. eigenvalues --    3.98721   3.99932   4.03701   4.04189   4.05796
 Alpha virt. eigenvalues --    4.07304   4.08878   4.10951   4.11892   4.13459
 Alpha virt. eigenvalues --    4.14400   4.15528   4.16261   4.17445   4.17764
 Alpha virt. eigenvalues --    4.20035   4.20601   4.21617   4.23006   4.24390
 Alpha virt. eigenvalues --    4.27651   4.29386   4.29625   4.31595   4.34467
 Alpha virt. eigenvalues --    4.37033   4.39679   4.40444   4.42033   4.45202
 Alpha virt. eigenvalues --    4.48502   4.49028   4.55181   4.57176   4.60242
 Alpha virt. eigenvalues --    4.71025   4.72973   4.76846   4.77664   4.82921
 Alpha virt. eigenvalues --    4.84157   4.87893   4.91828   4.93150   4.96911
 Alpha virt. eigenvalues --    5.00381   5.02279   5.02623   5.04758   5.06129
 Alpha virt. eigenvalues --    5.08477   5.09471   5.11236   5.11534   5.13628
 Alpha virt. eigenvalues --    5.23392   5.27071   5.27519   5.28338   5.31929
 Alpha virt. eigenvalues --    5.34036   5.35501   5.38716   5.40515   5.41088
 Alpha virt. eigenvalues --    5.43981   5.45546   5.46564   5.48473   5.51558
 Alpha virt. eigenvalues --    5.53250   5.54490   5.55634   5.59294   5.60441
 Alpha virt. eigenvalues --    5.61054   5.64311   5.68068   5.69253   5.72613
 Alpha virt. eigenvalues --    5.75158   5.78761   5.81605   5.89086   5.91559
 Alpha virt. eigenvalues --    6.03418   6.07769   6.14607   6.46529   6.48822
 Alpha virt. eigenvalues --    6.52331   6.54044   6.57239   6.58110   6.59127
 Alpha virt. eigenvalues --    6.60467   6.62214   6.63938   6.64804   6.65437
 Alpha virt. eigenvalues --    6.67025   6.67580   6.68935   6.69447   6.70346
 Alpha virt. eigenvalues --    6.70755   6.72907   6.74102   6.76146   6.76662
 Alpha virt. eigenvalues --    6.79663   6.80106   6.82018   6.82442   6.83943
 Alpha virt. eigenvalues --    6.87080   6.88469   6.89869   6.91692   6.95079
 Alpha virt. eigenvalues --    6.97474   7.02109   7.04424   7.20207   7.27678
 Alpha virt. eigenvalues --    7.29067   7.33103   7.34012   7.34851   7.35886
 Alpha virt. eigenvalues --    7.40057   7.45666   7.48741   7.54546   7.55790
 Alpha virt. eigenvalues --    7.60001   7.66926   7.73464   7.81185  12.29160
 Alpha virt. eigenvalues --   23.44155  23.53665  43.71426  43.83303  43.94259
 Alpha virt. eigenvalues --   43.98329  44.06766  44.24167
          Condensed to atoms (all electrons):
               1          2          3          4          5          6
     1  C    4.788435   0.422015   0.397179   0.232060  -0.033855  -0.024364
     2  H    0.422015   0.568321  -0.025804  -0.043463   0.000595   0.001394
     3  H    0.397179  -0.025804   0.569852  -0.022487   0.004027  -0.000948
     4  C    0.232060  -0.043463  -0.022487   4.968757   0.431942   0.392967
     5  H   -0.033855   0.000595   0.004027   0.431942   0.486137  -0.014422
     6  H   -0.024364   0.001394  -0.000948   0.392967  -0.014422   0.511708
     7  O    0.225422  -0.033475  -0.021532  -0.043648   0.000115   0.005204
     8  H   -0.052454   0.006999  -0.005272   0.000519   0.000672   0.001645
     9  O   -0.012095   0.002942  -0.006336   0.135351  -0.012200  -0.002918
    10  H   -0.005051  -0.000466   0.000224  -0.002346   0.000004   0.000768
    11  Si   0.012371   0.001254  -0.000338  -0.012854  -0.003810   0.000168
    12  O   -0.016531   0.013697  -0.000014   0.001761  -0.000233   0.000039
    13  H    0.000096  -0.000372  -0.000001   0.000021  -0.000031  -0.000001
    14  O    0.009862  -0.003224  -0.000038  -0.004857   0.004523   0.000609
    15  H   -0.012649  -0.005737   0.001487   0.001859   0.001687   0.000099
    16  O   -0.000447  -0.005067  -0.000162  -0.025873  -0.018666  -0.004252
    17  H    0.000543   0.001009  -0.000083  -0.000399   0.000591  -0.001257
    18  O   -0.000291   0.000013  -0.000003   0.000150  -0.000527  -0.000005
    19  H   -0.000013  -0.000019   0.000000   0.000037   0.000008  -0.000001
               7          8          9         10         11         12
     1  C    0.225422  -0.052454  -0.012095  -0.005051   0.012371  -0.016531
     2  H   -0.033475   0.006999   0.002942  -0.000466   0.001254   0.013697
     3  H   -0.021532  -0.005272  -0.006336   0.000224  -0.000338  -0.000014
     4  C   -0.043648   0.000519   0.135351  -0.002346  -0.012854   0.001761
     5  H    0.000115   0.000672  -0.012200   0.000004  -0.003810  -0.000233
     6  H    0.005204   0.001645  -0.002918   0.000768   0.000168   0.000039
     7  O    7.974424   0.311168  -0.049576   0.002700  -0.005286   0.000610
     8  H    0.311168   0.438644   0.074889  -0.003898  -0.000463  -0.000001
     9  O   -0.049576   0.074889   8.165579   0.286715  -0.000377  -0.000001
    10  H    0.002700  -0.003898   0.286715   0.574315  -0.000087   0.000000
    11  Si  -0.005286  -0.000463  -0.000377  -0.000087  11.499135   0.464987
    12  O    0.000610  -0.000001  -0.000001   0.000000   0.464987   7.635716
    13  H    0.000015  -0.000000  -0.000000  -0.000000  -0.017954   0.330996
    14  O   -0.026442   0.000259  -0.000181  -0.000018   0.476874  -0.024729
    15  H    0.059258  -0.002083   0.000448   0.000108  -0.019061  -0.000122
    16  O    0.001281  -0.000403   0.001619  -0.000132   0.366587  -0.033419
    17  H   -0.000071   0.000033  -0.000058  -0.000008  -0.013996   0.001159
    18  O    0.000006  -0.000001   0.000000   0.000000   0.472893  -0.026358
    19  H    0.000001  -0.000000  -0.000000   0.000000  -0.018431  -0.000444
              13         14         15         16         17         18
     1  C    0.000096   0.009862  -0.012649  -0.000447   0.000543  -0.000291
     2  H   -0.000372  -0.003224  -0.005737  -0.005067   0.001009   0.000013
     3  H   -0.000001  -0.000038   0.001487  -0.000162  -0.000083  -0.000003
     4  C    0.000021  -0.004857   0.001859  -0.025873  -0.000399   0.000150
     5  H   -0.000031   0.004523   0.001687  -0.018666   0.000591  -0.000527
     6  H   -0.000001   0.000609   0.000099  -0.004252  -0.001257  -0.000005
     7  O    0.000015  -0.026442   0.059258   0.001281  -0.000071   0.000006
     8  H   -0.000000   0.000259  -0.002083  -0.000403   0.000033  -0.000001
     9  O   -0.000000  -0.000181   0.000448   0.001619  -0.000058   0.000000
    10  H   -0.000000  -0.000018   0.000108  -0.000132  -0.000008   0.000000
    11  Si  -0.017954   0.476874  -0.019061   0.366587  -0.013996   0.472893
    12  O    0.330996  -0.024729  -0.000122  -0.033419   0.001159  -0.026358
    13  H    0.510465   0.001353  -0.000083  -0.000318  -0.000177  -0.000712
    14  O    0.001353   7.683623   0.346789  -0.025462   0.000297  -0.024625
    15  H   -0.000083   0.346789   0.395199   0.000310  -0.000059   0.000403
    16  O   -0.000318  -0.025462   0.000310   7.811403   0.329488  -0.026616
    17  H   -0.000177   0.000297  -0.000059   0.329488   0.492020   0.001602
    18  O   -0.000712  -0.024625   0.000403  -0.026616   0.001602   7.665504
    19  H    0.000146  -0.000925  -0.000089   0.001485  -0.000088   0.343545
              19
     1  C   -0.000013
     2  H   -0.000019
     3  H    0.000000
     4  C    0.000037
     5  H    0.000008
     6  H   -0.000001
     7  O    0.000001
     8  H   -0.000000
     9  O   -0.000000
    10  H    0.000000
    11  Si  -0.018431
    12  O   -0.000444
    13  H    0.000146
    14  O   -0.000925
    15  H   -0.000089
    16  O    0.001485
    17  H   -0.000088
    18  O    0.343545
    19  H    0.484141
 Mulliken charges:
               1
     1  C    0.069766
     2  H    0.099387
     3  H    0.110250
     4  C   -0.009498
     5  H    0.153443
     6  H    0.133567
     7  O   -0.400177
     8  H    0.229746
     9  O   -0.583802
    10  H    0.147171
    11  Si   0.798388
    12  O   -0.347113
    13  H    0.176559
    14  O   -0.413690
    15  H    0.232236
    16  O   -0.371357
    17  H    0.189454
    18  O   -0.404978
    19  H    0.190647
 Sum of Mulliken charges =  -0.00000
 Mulliken charges with hydrogens summed into heavy atoms:
               1
     1  C    0.279403
     4  C    0.277512
     7  O   -0.170431
     9  O   -0.436630
    11  Si   0.798388
    12  O   -0.170554
    14  O   -0.181454
    16  O   -0.181903
    18  O   -0.214331
 APT charges:
               1
     1  C    0.306423
     2  H    0.023883
     3  H   -0.009244
     4  C    0.820114
     5  H   -0.012528
     6  H    0.014679
     7  O   -0.659715
     8  H    0.335631
     9  O   -0.820570
    10  H    0.158481
    11  Si   2.204515
    12  O   -0.860622
    13  H    0.310322
    14  O   -0.924951
    15  H    0.450358
    16  O   -1.051397
    17  H    0.280931
    18  O   -0.886970
    19  H    0.320661
 Sum of APT charges =  -0.00000
 APT charges with hydrogens summed into heavy atoms:
               1
     1  C    0.321062
     4  C    0.822265
     7  O   -0.324084
     9  O   -0.662088
    11  Si   2.204515
    12  O   -0.550301
    14  O   -0.474593
    16  O   -0.770466
    18  O   -0.566309
 Electronic spatial extent (au):  <R**2>=           1747.9751
 Charge=             -0.0000 electrons
 Dipole moment (field-independent basis, Debye):
    X=             -4.3086    Y=             -2.9297    Z=              1.3847  Tot=              5.3912
 Quadrupole moment (field-independent basis, Debye-Ang):
   XX=            -70.0507   YY=            -59.4522   ZZ=            -54.4733
   XY=             -0.7509   XZ=             -0.6259   YZ=              1.5066
 Traceless Quadrupole moment (field-independent basis, Debye-Ang):
   XX=             -8.7253   YY=              1.8732   ZZ=              6.8521
   XY=             -0.7509   XZ=             -0.6259   YZ=              1.5066
 Octapole moment (field-independent basis, Debye-Ang**2):
  XXX=           -100.6645  YYY=            -23.7900  ZZZ=              4.7203  XYY=              4.0677
  XXY=              6.2747  XXZ=            -11.2999  XZZ=             -9.7976  YZZ=             -0.5246
  YYZ=              0.9427  XYZ=              2.4486
 Hexadecapole moment (field-independent basis, Debye-Ang**3):
 XXXX=          -1674.4968 YYYY=           -327.4580 ZZZZ=           -239.0746 XXXY=              9.2895
 XXXZ=              4.1824 YYYX=             -7.0495 YYYZ=            -10.4596 ZZZX=            -19.5703
 ZZZY=             12.7207 XXYY=           -310.3156 XXZZ=           -206.7715 YYZZ=            -90.9275
 XXYZ=             25.6872 YYXZ=            -12.7633 ZZXY=             -5.6267
 N-N= 6.346630612599D+02 E-N=-3.218094869894D+03  KE= 8.203933882787D+02
  Exact polarizability:     103.303      -0.815      68.364      -7.356       0.886      68.358
 Approx polarizability:     100.610       1.793      74.259      -9.460      -0.352      76.587
   1 Symmetry operations used in ECPInt.
 ECPInt:  NShTT=   13203 NPrTT=   36019 LenC2=   12475 LenP2D=   26626.
 LDataN:  DoStor=T MaxTD1= 8 Len=  415
 Calling FoFJK, ICntrl=    100127 FMM=F ISym2X=0 I1Cent= 0 IOpClX= 0 NMat=1 NMatS=1 NMatT=0.
 ***** Axes restored to original set *****
 -------------------------------------------------------------------
 Center     Atomic                   Forces (Hartrees/Bohr)
 Number     Number              X              Y              Z
 -------------------------------------------------------------------
      1        6          -0.000005756    0.000002204   -0.000001838
      2        1          -0.000008251   -0.000003136    0.000003377
      3        1           0.000002570   -0.000000436   -0.000000286
      4        6          -0.067392532    0.007192223    0.020366326
      5        1           0.000002624   -0.000002803    0.000009385
      6        1          -0.000001890    0.000001069    0.000000825
      7        8           0.000016019    0.000005130   -0.000001965
      8        1          -0.000004303   -0.000005908    0.000000825
      9        8           0.044101032   -0.004365444   -0.016369706
     10        1           0.000000547   -0.000001971    0.000000201
     11       14          -0.000017464   -0.000006651   -0.000024886
     12        8          -0.000001802   -0.000002622   -0.000000136
     13        1           0.000000843   -0.000001492   -0.000003118
     14        8          -0.000016271    0.000009684   -0.000004118
     15        1           0.000007676   -0.000004242    0.000011138
     16        8           0.023300928   -0.002808568   -0.003997342
     17        1          -0.000003520    0.000000427   -0.000004137
     18        8           0.000013626   -0.000000801    0.000016170
     19        1           0.000005923   -0.000006665   -0.000000716
 -------------------------------------------------------------------
 Cartesian Forces:  Max     0.067392532 RMS     0.011703199
 FormGI is forming the generalized inverse of G from B-inverse, IUseBI=4.

 GradGradGradGradGradGradGradGradGradGradGradGradGradGradGradGradGradGrad
 Berny optimization.
 Internal  Forces:  Max     0.047244893 RMS     0.005639197
 Search for a saddle point.
 Step number   1 out of a maximum of   98
 All quantities printed in internal units (Hartrees-Bohrs-Radians)
 Swapping is turned off.
 Second derivative matrix not updated -- analytic derivatives used.
 ITU=  0
     Eigenvalues ---   -0.02330   0.00080   0.00179   0.00213   0.00336
     Eigenvalues ---    0.00453   0.00534   0.00768   0.01927   0.02156
     Eigenvalues ---    0.02640   0.03224   0.03940   0.04296   0.04771
     Eigenvalues ---    0.05014   0.05281   0.05746   0.06033   0.06446
     Eigenvalues ---    0.06742   0.06929   0.08080   0.08420   0.08700
     Eigenvalues ---    0.09496   0.10200   0.11470   0.14096   0.14422
     Eigenvalues ---    0.16349   0.19820   0.22115   0.26527   0.27825
     Eigenvalues ---    0.33214   0.34073   0.34351   0.35117   0.37739
     Eigenvalues ---    0.38535   0.39266   0.39843   0.42311   0.45026
     Eigenvalues ---    0.49610   0.54904   0.55652   0.57062   0.57130
     Eigenvalues ---    0.58224
 Eigenvectors required to have negative eigenvalues:
                          R7        R8        D1        D5        D9
   1                    0.79250  -0.34037   0.17673   0.16503   0.16121
                          A9        D10       D6        D2        A12
   1                   -0.15388  -0.14999  -0.14617  -0.13447  -0.13179
 RFO step:  Lambda0=3.535888080D-02 Lambda=-1.09222623D-02.
 Linear search not attempted -- option 19 set.
 Maximum step size (   0.300) exceeded in Quadratic search.
    -- Step size scaled by   0.480
 Iteration  1 RMS(Cart)=  0.04546037 RMS(Int)=  0.00214022
 Iteration  2 RMS(Cart)=  0.00204378 RMS(Int)=  0.00161122
 Iteration  3 RMS(Cart)=  0.00000240 RMS(Int)=  0.00161122
 Iteration  4 RMS(Cart)=  0.00000000 RMS(Int)=  0.00161122
 Variable       Old X    -DE/DX   Delta X   Delta X   Delta X     New X
                                 (Linear)    (Quad)   (Total)
    R1        2.06154  -0.00001   0.00000   0.00252   0.00252   2.06406
    R2        2.06425  -0.00000   0.00000   0.00052   0.00052   2.06477
    R3        2.82138  -0.00000   0.00000   0.00317   0.00317   2.82455
    R4        2.65693  -0.00000   0.00000  -0.00896  -0.00896   2.64797
    R5        2.02733   0.00001   0.00000   0.00024   0.00024   2.02758
    R6        2.03496  -0.00000   0.00000   0.00145   0.00145   2.03641
    R7        4.05346  -0.04724   0.00000   0.19582   0.19582   4.24929
    R8        4.05346   0.02380   0.00000  -0.10415  -0.10415   3.94931
    R9        1.85125   0.00001   0.00000   0.02064   0.02064   1.87189
   R10        1.81068   0.00000   0.00000  -0.00063  -0.00063   1.81005
   R11        3.07433  -0.00000   0.00000  -0.00406  -0.00406   3.07027
   R12        3.03592   0.00001   0.00000  -0.00705  -0.00705   3.02888
   R13        3.15662  -0.00001   0.00000   0.01743   0.01743   3.17405
   R14        3.07530   0.00002   0.00000  -0.00213  -0.00213   3.07317
   R15        1.80299   0.00000   0.00000  -0.00009  -0.00009   1.80290
   R16        1.84097  -0.00001   0.00000   0.00576   0.00576   1.84673
   R17        1.80842  -0.00000   0.00000   0.00081   0.00081   1.80923
   R18        1.80305   0.00000   0.00000  -0.00001  -0.00001   1.80304
    A1        1.87552  -0.00000   0.00000  -0.00323  -0.00329   1.87223
    A2        1.95689   0.00000   0.00000  -0.00496  -0.00498   1.95191
    A3        1.89382  -0.00000   0.00000   0.00803   0.00803   1.90185
    A4        1.88491   0.00000   0.00000  -0.00599  -0.00601   1.87891
    A5        1.94398   0.00001   0.00000   0.00569   0.00569   1.94968
    A6        1.90916  -0.00000   0.00000   0.00041   0.00042   1.90958
    A7        2.08663   0.00000   0.00000   0.00489  -0.00351   2.08312
    A8        2.10746  -0.00000   0.00000   0.01137   0.00510   2.11257
    A9        1.52380  -0.00000   0.00000  -0.06691  -0.06637   1.45742
   A10        1.69018  -0.00000   0.00000   0.03176   0.03140   1.72158
   A11        2.08546   0.00000   0.00000   0.00256  -0.00702   2.07844
   A12        1.55533  -0.00000   0.00000  -0.11245  -0.11181   1.44353
   A13        1.40160  -0.00000   0.00000   0.09577   0.09588   1.49748
   A14        1.71203   0.00000   0.00000  -0.02617  -0.02596   1.68607
   A15        1.54006   0.00001   0.00000   0.07599   0.07577   1.61583
   A16        1.77069  -0.00001   0.00000  -0.02529  -0.02529   1.74540
   A17        1.77794  -0.00000   0.00000   0.02188   0.02188   1.79982
   A18        1.89947   0.00000   0.00000   0.00998   0.00993   1.90940
   A19        1.87594  -0.00001   0.00000  -0.00621  -0.00622   1.86972
   A20        1.99494   0.00000   0.00000   0.00187   0.00173   1.99666
   A21        1.94660  -0.00000   0.00000  -0.00299  -0.00295   1.94365
   A22        1.92965  -0.00001   0.00000   0.00956   0.00949   1.93914
   A23        1.81611   0.00001   0.00000  -0.01393  -0.01394   1.80217
   A24        2.07036   0.00000   0.00000   0.00611   0.00611   2.07646
   A25        2.09862   0.00002   0.00000   0.00863   0.00863   2.10725
   A26        1.97230  -0.00002   0.00000  -0.01238  -0.01250   1.95980
   A27        1.95450   0.00000   0.00000  -0.01097  -0.01107   1.94343
   A28        1.99311   0.00001   0.00000   0.00048   0.00026   1.99337
   A29        2.07163   0.00001   0.00000   0.00538   0.00538   2.07702
   A30        3.21398  -0.00000   0.00000  -0.03515  -0.03497   3.17901
   A31        2.96982  -0.00001   0.00000  -0.03990  -0.03997   2.92986
    D1        1.63791  -0.00000   0.00000   0.13099   0.13073   1.76864
    D2       -1.41175  -0.00000   0.00000  -0.10683  -0.10676  -1.51850
    D3       -3.11896  -0.00000   0.00000  -0.03701  -0.03698   3.12725
    D4        0.19440   0.00001   0.00000   0.00289   0.00299   0.19739
    D5       -2.58225  -0.00000   0.00000   0.12031   0.12007  -2.46218
    D6        0.65128  -0.00000   0.00000  -0.11752  -0.11742   0.53386
    D7       -1.05594  -0.00000   0.00000  -0.04770  -0.04764  -1.10358
    D8        2.25742   0.00001   0.00000  -0.00780  -0.00767   2.24975
    D9       -0.46378   0.00000   0.00000   0.12382   0.12357  -0.34021
   D10        2.76975   0.00000   0.00000  -0.11400  -0.11392   2.65583
   D11        1.06254   0.00000   0.00000  -0.04419  -0.04414   1.01840
   D12       -1.90729   0.00001   0.00000  -0.00428  -0.00417  -1.91146
   D13       -3.05713   0.00000   0.00000  -0.02033  -0.02032  -3.07745
   D14        1.16502   0.00000   0.00000  -0.02473  -0.02474   1.14028
   D15       -0.91734   0.00000   0.00000  -0.02110  -0.02110  -0.93844
   D16       -2.70400  -0.00000   0.00000   0.00859   0.00597  -2.69803
   D17       -0.61584  -0.00000   0.00000   0.02354   0.02607  -0.58977
   D18        1.47285  -0.00000   0.00000   0.00707   0.00717   1.48002
   D19        0.95799  -0.00000   0.00000   0.00517   0.00487   0.96286
   D20       -3.04470   0.00000   0.00000  -0.01521  -0.01539  -3.06009
   D21       -1.11746  -0.00000   0.00000   0.00021   0.00201  -1.11545
   D22        1.16304  -0.00000   0.00000  -0.02016  -0.01825   1.14479
   D23        3.06571  -0.00000   0.00000   0.02698   0.02531   3.09102
   D24       -0.93698   0.00000   0.00000   0.00660   0.00505  -0.93193
   D25       -3.07148  -0.00000   0.00000  -0.00705  -0.00702  -3.07850
   D26       -0.96087  -0.00000   0.00000  -0.00857  -0.00858  -0.96944
   D27        1.04515   0.00000   0.00000  -0.02868  -0.02870   1.01645
   D28        1.11820  -0.00000   0.00000   0.01394   0.01389   1.13208
   D29       -0.94847   0.00001   0.00000   0.01706   0.01706  -0.93141
   D30       -2.96026  -0.00000   0.00000   0.03016   0.03022  -2.93005
   D31       -1.74744  -0.00000   0.00000  -0.01822  -0.01820  -1.76564
   D32        2.27479   0.00000   0.00000   0.00860   0.00865   2.28344
   D33        0.33325  -0.00000   0.00000  -0.01166  -0.01168   0.32156
   D34       -1.92771   0.00000   0.00000   0.01517   0.01516  -1.91254
   D35        2.41382  -0.00000   0.00000  -0.01006  -0.01009   2.40373
   D36        0.15287  -0.00000   0.00000   0.01676   0.01676   0.16963
   D37        1.46835   0.00000   0.00000   0.01814   0.01816   1.48651
   D38       -0.68198  -0.00000   0.00000  -0.00399  -0.00402  -0.68601
   D39       -2.77407  -0.00000   0.00000   0.00276   0.00278  -2.77129
         Item               Value     Threshold  Converged?
 Maximum Force            0.047245     0.000450     NO 
 RMS     Force            0.005639     0.000300     NO 
 Maximum Displacement     0.173035     0.001800     NO 
 RMS     Displacement     0.046293     0.001200     NO 
 Predicted change in Energy= 1.110002D-02
 GradGradGradGradGradGradGradGradGradGradGradGradGradGradGradGradGradGrad

                          Input orientation:                          
 ---------------------------------------------------------------------
 Center     Atomic      Atomic             Coordinates (Angstroms)
 Number     Number       Type             X           Y           Z
 ---------------------------------------------------------------------
      1          6           0       -1.606818    0.577044   -0.785502
      2          1           0       -0.708196    0.955867   -1.277427
      3          1           0       -2.430896    0.673338   -1.496462
      4          6           0       -1.479419   -0.869768   -0.432517
      5          1           0       -1.254055   -1.146416    0.579358
      6          1           0       -1.739308   -1.639459   -1.140541
      7          8           0       -1.837069    1.321932    0.378806
      8          1           0       -2.622384    0.838216    0.740071
      9          8           0       -3.545169   -0.583697    0.408410
     10          1           0       -3.602835   -1.264408    1.079797
     11         14           0        1.492873   -0.000051    0.077857
     12          8           0        1.916715    1.183743   -0.951069
     13          1           0        2.372570    0.954193   -1.757121
     14          8           0        0.664201    0.626714    1.298299
     15          1           0       -0.207237    1.042951    1.148779
     16          8           0        0.566802   -1.100917   -0.789128
     17          1           0        0.838440   -2.012725   -0.682174
     18          8           0        2.736144   -0.900150    0.615252
     19          1           0        3.234519   -0.596867    1.370233
 ---------------------------------------------------------------------
                    Distance matrix (angstroms):
                    1          2          3          4          5
     1  C    0.000000
     2  H    1.092254   0.000000
     3  H    1.092630   1.759402   0.000000
     4  C    1.494688   2.154437   2.102013   0.000000
     5  H    2.226566   2.857483   3.000914   1.072947   0.000000
     6  H    2.248664   2.796006   2.440083   1.077620   1.853811
     7  O    1.401245   2.037515   2.071216   2.364256   2.544184
     8  H    1.851204   2.783569   2.250763   2.366123   2.415971
     9  O    2.555376   3.641527   2.539740   2.248626   2.365392
    10  H    3.294597   4.343393   3.430075   2.636614   2.404398
    11  Si   3.269024   2.755954   4.281109   3.138696   3.018489
    12  O    3.579215   2.654919   4.411313   4.002441   4.222042
    13  H    4.113614   3.117888   4.818724   4.463097   4.798344
    14  O    3.082567   2.937035   4.170430   3.135329   2.709349
    15  H    2.432558   2.478915   3.475424   2.788806   2.492669
    16  O    2.745941   2.468687   3.554504   2.089886   2.278233
    17  H    3.563266   3.399845   4.308892   2.596372   2.592391
    18  O    4.796409   4.346322   5.799440   4.343929   3.997953
    19  H    5.428057   4.996608   6.475206   5.054265   4.590729
                    6          7          8          9         10
     6  H    0.000000
     7  O    3.329837   0.000000
     8  H    3.233481   0.990561   0.000000
     9  O    2.602887   2.559278   1.727243   0.000000
    10  H    2.922892   3.209123   2.344723   0.957838   0.000000
    11  Si   3.823500   3.595376   4.251654   5.082498   5.344973
    12  O    4.623080   3.984791   4.856208   5.899509   6.370502
    13  H    4.900484   4.734816   5.585605   6.486468   6.976802
    14  O    4.106134   2.754115   3.340357   4.469429   4.672439
    15  H    3.844939   1.824018   2.458026   3.786281   4.105941
    16  O    2.394089   3.607336   4.033558   4.313922   4.572252
    17  H    2.644657   4.404993   4.704035   4.737882   4.836264
    18  O    4.864058   5.089974   5.634831   6.292680   6.366408
    19  H    5.668328   5.512325   6.062992   6.847587   6.876000
                   11         12         13         14         15
    11  Si   0.000000
    12  O    1.624715   0.000000
    13  H    2.247575   0.954052   0.000000
    14  O    1.602813   2.634147   3.515872   0.000000
    15  H    2.263869   2.990044   3.886842   0.977248   0.000000
    16  O    1.679636   2.658602   2.901946   2.711373   2.991788
    17  H    2.248730   3.384138   3.508799   3.304431   3.712544
    18  O    1.626251   2.732661   3.032973   2.662859   3.567042
    19  H    2.249390   3.208680   3.595704   2.847606   3.818866
                   16         17         18         19
    16  O    0.000000
    17  H    0.957402   0.000000
    18  O    2.592033   2.553902   0.000000
    19  H    3.468951   3.458066   0.954125   0.000000
 Stoichiometry    C2H10O6Si
 Framework group  C1[X(C2H10O6Si)]
 Deg. of freedom    51
 Full point group                 C1      NOp   1
 Largest Abelian subgroup         C1      NOp   1
 Largest concise Abelian subgroup C1      NOp   1
                         Standard orientation:                         
 ---------------------------------------------------------------------
 Center     Atomic      Atomic             Coordinates (Angstroms)
 Number     Number       Type             X           Y           Z
 ---------------------------------------------------------------------
      1          6           0        1.605614    0.566733    0.798735
      2          1           0        0.704364    0.950748    1.281747
      3          1           0        2.423780    0.661125    1.516743
      4          6           0        1.474903   -0.880366    0.448145
      5          1           0        1.257285   -1.158506   -0.565016
      6          1           0        1.725076   -1.649454    1.160312
      7          8           0        1.849490    1.307720   -0.365288
      8          1           0        2.635812    0.819637   -0.718397
      9          8           0        3.549278   -0.605531   -0.375112
     10          1           0        3.609858   -1.288144   -1.044308
     11         14           0       -1.488846    0.001260   -0.090689
     12          8           0       -1.916510    1.189454    0.931562
     13          1           0       -2.380508    0.963916    1.734091
     14          8           0       -0.646607    0.621333   -1.305247
     15          1           0        0.225318    1.034070   -1.149012
     16          8           0       -0.575408   -1.101561    0.787147
     17          1           0       -0.850147   -2.012416    0.679999
     18          8           0       -2.731304   -0.894641   -0.636908
     19          1           0       -3.221612   -0.591014   -1.397015
 ---------------------------------------------------------------------
 Rotational constants (GHZ):           2.4315391           0.7225989           0.6877229
 Standard basis: def2TZVPP (5D, 7F)
 There are   486 symmetry adapted cartesian basis functions of A   symmetry.
 There are   430 symmetry adapted basis functions of A   symmetry.
   430 basis functions,   647 primitive gaussians,   486 cartesian basis functions
    42 alpha electrons       42 beta electrons
       nuclear repulsion energy       636.1078682241 Hartrees.
 NAtoms=   19 NActive=   19 NUniq=   19 SFac= 1.00D+00 NAtFMM=   60 NAOKFM=F Big=F
 Integral buffers will be    131072 words long.
 Raffenetti 2 integral format.
 Two-electron integral symmetry is turned on.
 Nuclear repulsion after empirical dispersion term =      636.0969388879 Hartrees.
 One-electron integrals computed using PRISM.
   1 Symmetry operations used in ECPInt.
 ECPInt:  NShTT=   13203 NPrTT=   36019 LenC2=   12485 LenP2D=   26673.
 LDataN:  DoStor=T MaxTD1= 6 Len=  172
 NBasis=   430 RedAO= T EigKep=  1.68D-04  NBF=   430
 NBsUse=   430 1.00D-06 EigRej= -1.00D+00 NBFU=   430
 Initial guess from the checkpoint file:  "TSoptfromFrozenCalcAll.chk"
 B after Tr=    -0.000000    0.000000    0.000000
         Rot=    0.999990    0.001920    0.003540    0.002123 Ang=   0.52 deg.
 ExpMin= 7.01D-02 ExpMax= 4.48D+04 ExpMxC= 1.53D+03 IAcc=3 IRadAn=         5 AccDes= 0.00D+00
 Harris functional with IExCor= 4639 and IRadAn=       5 diagonalized for initial guess.
 HarFok:  IExCor= 4639 AccDes= 0.00D+00 IRadAn=         5 IDoV= 1 UseB2=F ITyADJ=14
 ICtDFT=  3500011 ScaDFX=  1.000000  1.000000  1.000000  1.000000
 FoFCou: FMM=F IPFlag=           0 FMFlag=      100000 FMFlg1=           0
         NFxFlg=           0 DoJE=T BraDBF=F KetDBF=T FulRan=T
         wScrn=  0.000000 ICntrl=       500 IOpCl=  0 I1Cent=   200000004 NGrid=           0
         NMat0=    1 NMatS0=      1 NMatT0=    0 NMatD0=    1 NMtDS0=    0 NMtDT0=    0
 Petite list used in FoFCou.
 Requested convergence on RMS density matrix=1.00D-08 within 128 cycles.
 Requested convergence on MAX density matrix=1.00D-06.
 Requested convergence on             energy=1.00D-06.
 No special actions if energy rises.
 Integral accuracy reduced to 1.0D-05 until final iterations.
 Initial convergence to 1.0D-05 achieved.  Increase integral accuracy.
 SCF Done:  E(RwB97XD) =  -823.258691917     A.U. after   14 cycles
            NFock= 14  Conv=0.98D-08     -V/T= 2.0035
 DoSCS=F DFT=T ScalE2(SS,OS)=  1.000000  1.000000
 Range of M.O.s used for correlation:     1   430
 NBasis=   430 NAE=    42 NBE=    42 NFC=     0 NFV=     0
 NROrb=    430 NOA=    42 NOB=    42 NVA=   388 NVB=   388

 **** Warning!!: The largest alpha MO coefficient is  0.13986730D+02

   1 Symmetry operations used in ECPInt.
 ECPInt:  NShTT=   13203 NPrTT=   36019 LenC2=   12485 LenP2D=   26673.
 LDataN:  DoStor=T MaxTD1= 7 Len=  274
 Number of processors reduced to  12 by ecpmxn.
 Symmetrizing basis deriv contribution to polar:
 IMax=3 JMax=2 DiffMx= 0.00D+00
 G2DrvN: will do    20 centers at a time, making    1 passes.
 Calling FoFCou, ICntrl=  3107 FMM=F I1Cent=   0 AccDes= 0.00D+00.
 End of G2Drv F.D. properties file   721 does not exist.
 End of G2Drv F.D. properties file   722 does not exist.
 End of G2Drv F.D. properties file   788 does not exist.
          IDoAtm=1111111111111111111
          Differentiating once with respect to electric field.
                with respect to dipole field.
          Differentiating once with respect to nuclear coordinates.
 CalDSu exits because no D1Ps are significant.
          There are    60 degrees of freedom in the 1st order CPHF.  IDoFFX=6 NUNeed=     3.
     57 vectors produced by pass  0 Test12= 2.72D-14 1.67D-09 XBig12= 4.82D+01 4.93D+00.
 AX will form    57 AO Fock derivatives at one time.
     57 vectors produced by pass  1 Test12= 2.72D-14 1.67D-09 XBig12= 8.10D+00 5.19D-01.
     57 vectors produced by pass  2 Test12= 2.72D-14 1.67D-09 XBig12= 3.05D-01 1.47D-01.
     57 vectors produced by pass  3 Test12= 2.72D-14 1.67D-09 XBig12= 3.61D-03 8.16D-03.
     57 vectors produced by pass  4 Test12= 2.72D-14 1.67D-09 XBig12= 3.45D-05 9.09D-04.
     57 vectors produced by pass  5 Test12= 2.72D-14 1.67D-09 XBig12= 2.40D-07 6.78D-05.
     57 vectors produced by pass  6 Test12= 2.72D-14 1.67D-09 XBig12= 1.49D-09 3.38D-06.
     18 vectors produced by pass  7 Test12= 2.72D-14 1.67D-09 XBig12= 8.98D-12 3.68D-07.
      3 vectors produced by pass  8 Test12= 2.72D-14 1.67D-09 XBig12= 5.03D-14 3.39D-08.
      1 vectors produced by pass  9 Test12= 2.72D-14 1.67D-09 XBig12= 3.53D-16 3.10D-09.
 InvSVY:  IOpt=1 It=  1 EMax= 2.66D-15
 Solved reduced A of dimension   421 with    60 vectors.
 Isotropic polarizability for W=    0.000000       81.71 Bohr**3.
 End of Minotr F.D. properties file   721 does not exist.
 End of Minotr F.D. properties file   722 does not exist.
 End of Minotr F.D. properties file   788 does not exist.
   1 Symmetry operations used in ECPInt.
 ECPInt:  NShTT=   13203 NPrTT=   36019 LenC2=   12485 LenP2D=   26673.
 LDataN:  DoStor=T MaxTD1= 8 Len=  415
 Calling FoFJK, ICntrl=    100127 FMM=F ISym2X=0 I1Cent= 0 IOpClX= 0 NMat=1 NMatS=1 NMatT=0.
 ***** Axes restored to original set *****
 -------------------------------------------------------------------
 Center     Atomic                   Forces (Hartrees/Bohr)
 Number     Number              X              Y              Z
 -------------------------------------------------------------------
      1        6           0.002541245    0.000398437   -0.001136247
      2        1          -0.000100708   -0.000039270   -0.000072330
      3        1          -0.000183246    0.000206003    0.000140513
      4        6          -0.056540725    0.007430505    0.018736864
      5        1           0.003186593   -0.000243998   -0.000428201
      6        1           0.002224172   -0.000181465   -0.001001848
      7        8           0.002096593    0.001573906   -0.001295132
      8        1          -0.001631423   -0.001221150    0.001452835
      9        8           0.032585549   -0.006022874   -0.013804811
     10        1          -0.000281309    0.000172950    0.000015314
     11       14          -0.000392235   -0.000353597   -0.000088141
     12        8          -0.000000823    0.000184520    0.000037594
     13        1           0.000051785   -0.000054371    0.000031754
     14        8           0.000488995    0.000020623    0.000115525
     15        1          -0.000279492    0.000108790   -0.000084024
     16        8           0.016195305   -0.001992091   -0.002905449
     17        1          -0.000066795   -0.000063006    0.000188665
     18        8           0.000165677    0.000058029    0.000076621
     19        1          -0.000059157    0.000018060    0.000020498
 -------------------------------------------------------------------
 Cartesian Forces:  Max     0.056540725 RMS     0.009557387
 FormGI is forming the generalized inverse of G from B-inverse, IUseBI=4.

 GradGradGradGradGradGradGradGradGradGradGradGradGradGradGradGradGradGrad
 Berny optimization.
 Internal  Forces:  Max     0.035570080 RMS     0.004226240
 Search for a saddle point.
 Step number   2 out of a maximum of   98
 All quantities printed in internal units (Hartrees-Bohrs-Radians)
 Swapping is turned off.
 Second derivative matrix not updated -- analytic derivatives used.
 ITU=  0  0
     Eigenvalues ---   -0.02534   0.00074   0.00199   0.00211   0.00394
     Eigenvalues ---    0.00481   0.00594   0.00856   0.01727   0.02189
     Eigenvalues ---    0.02636   0.03312   0.03992   0.04436   0.04643
     Eigenvalues ---    0.05125   0.05338   0.05556   0.06022   0.06295
     Eigenvalues ---    0.06717   0.06825   0.08114   0.08597   0.08766
     Eigenvalues ---    0.09273   0.10138   0.11562   0.14294   0.15210
     Eigenvalues ---    0.17341   0.20240   0.23116   0.26315   0.27599
     Eigenvalues ---    0.32963   0.33680   0.34322   0.34930   0.37048
     Eigenvalues ---    0.37928   0.38714   0.39412   0.44615   0.47810
     Eigenvalues ---    0.52754   0.55019   0.55549   0.57073   0.57135
     Eigenvalues ---    0.62714
 Eigenvectors required to have negative eigenvalues:
                          R7        R8        D1        D5        D9
   1                    0.75417  -0.40962   0.18351   0.17004   0.16599
                          A9        A12       D10       D6        A13
   1                   -0.15093  -0.14155  -0.12982  -0.12577   0.11751
 RFO step:  Lambda0=2.529998398D-02 Lambda=-5.90178501D-03.
 Linear search not attempted -- option 19 set.
 Maximum step size (   0.300) exceeded in Quadratic search.
    -- Step size scaled by   0.504
 Iteration  1 RMS(Cart)=  0.04651580 RMS(Int)=  0.00154702
 Iteration  2 RMS(Cart)=  0.00149511 RMS(Int)=  0.00108118
 Iteration  3 RMS(Cart)=  0.00000150 RMS(Int)=  0.00108118
 Iteration  4 RMS(Cart)=  0.00000000 RMS(Int)=  0.00108118
 Variable       Old X    -DE/DX   Delta X   Delta X   Delta X     New X
                                 (Linear)    (Quad)   (Total)
    R1        2.06406  -0.00006   0.00000   0.00179   0.00179   2.06585
    R2        2.06477   0.00006   0.00000   0.00069   0.00069   2.06546
    R3        2.82455   0.00088   0.00000   0.00749   0.00749   2.83204
    R4        2.64797   0.00025   0.00000  -0.00700  -0.00700   2.64097
    R5        2.02758   0.00033   0.00000   0.00101   0.00101   2.02858
    R6        2.03641   0.00025   0.00000   0.00210   0.00210   2.03851
    R7        4.24929  -0.03557   0.00000   0.16105   0.16105   4.41033
    R8        3.94931   0.01645   0.00000  -0.17358  -0.17358   3.77573
    R9        1.87189   0.00241   0.00000   0.03475   0.03475   1.90664
   R10        1.81005  -0.00009   0.00000  -0.00118  -0.00118   1.80887
   R11        3.07027   0.00006   0.00000  -0.00500  -0.00500   3.06526
   R12        3.02888  -0.00004   0.00000  -0.01022  -0.01022   3.01866
   R13        3.17405   0.00001   0.00000   0.02551   0.02551   3.19956
   R14        3.07317   0.00007   0.00000  -0.00212  -0.00212   3.07105
   R15        1.80290   0.00002   0.00000   0.00003   0.00003   1.80293
   R16        1.84673   0.00031   0.00000   0.01202   0.01202   1.85875
   R17        1.80923   0.00006   0.00000   0.00152   0.00152   1.81075
   R18        1.80304  -0.00001   0.00000  -0.00004  -0.00004   1.80299
    A1        1.87223   0.00004   0.00000  -0.00205  -0.00210   1.87013
    A2        1.95191  -0.00001   0.00000  -0.00450  -0.00452   1.94739
    A3        1.90185  -0.00045   0.00000   0.00989   0.00989   1.91174
    A4        1.87891  -0.00007   0.00000  -0.00576  -0.00577   1.87314
    A5        1.94968  -0.00002   0.00000   0.00190   0.00190   1.95158
    A6        1.90958   0.00052   0.00000   0.00024   0.00024   1.90982
    A7        2.08312   0.00026   0.00000  -0.00732  -0.01376   2.06936
    A8        2.11257   0.00010   0.00000  -0.00185  -0.00569   2.10687
    A9        1.45742   0.00253   0.00000  -0.05195  -0.05171   1.40571
   A10        1.72158  -0.00085   0.00000   0.03700   0.03704   1.75862
   A11        2.07844  -0.00000   0.00000  -0.01502  -0.02073   2.05771
   A12        1.44353   0.00061   0.00000  -0.10574  -0.10531   1.33822
   A13        1.49748  -0.00103   0.00000   0.08523   0.08562   1.58310
   A14        1.68607  -0.00071   0.00000  -0.00885  -0.00913   1.67695
   A15        1.61583  -0.00059   0.00000   0.04467   0.04470   1.66053
   A16        1.74540   0.00078   0.00000  -0.02290  -0.02290   1.72251
   A17        1.79982   0.00058   0.00000   0.04468   0.04468   1.84450
   A18        1.90940  -0.00010   0.00000   0.01481   0.01470   1.92410
   A19        1.86972  -0.00001   0.00000  -0.00843  -0.00846   1.86126
   A20        1.99666  -0.00004   0.00000  -0.00010  -0.00039   1.99628
   A21        1.94365   0.00020   0.00000  -0.00716  -0.00707   1.93658
   A22        1.93914  -0.00012   0.00000   0.01525   0.01511   1.95425
   A23        1.80217   0.00011   0.00000  -0.01766  -0.01768   1.78449
   A24        2.07646  -0.00012   0.00000   0.00578   0.00578   2.08224
   A25        2.10725  -0.00008   0.00000   0.00350   0.00350   2.11075
   A26        1.95980   0.00007   0.00000   0.00030   0.00015   1.95994
   A27        1.94343  -0.00015   0.00000  -0.02836  -0.02848   1.91495
   A28        1.99337   0.00002   0.00000  -0.00297  -0.00329   1.99008
   A29        2.07702  -0.00009   0.00000   0.00636   0.00636   2.08337
   A30        3.17901   0.00168   0.00000  -0.01495  -0.01467   3.16434
   A31        2.92986   0.00054   0.00000  -0.03497  -0.03504   2.89481
    D1        1.76864  -0.00148   0.00000   0.13343   0.13276   1.90140
    D2       -1.51850   0.00136   0.00000  -0.06103  -0.06053  -1.57903
    D3        3.12725   0.00069   0.00000  -0.01988  -0.01985   3.10740
    D4        0.19739   0.00015   0.00000   0.01509   0.01519   0.21258
    D5       -2.46218  -0.00149   0.00000   0.12481   0.12415  -2.33804
    D6        0.53386   0.00136   0.00000  -0.06965  -0.06913   0.46473
    D7       -1.10358   0.00068   0.00000  -0.02850  -0.02846  -1.13203
    D8        2.24975   0.00014   0.00000   0.00647   0.00659   2.25634
    D9       -0.34021  -0.00126   0.00000   0.12375   0.12309  -0.21712
   D10        2.65583   0.00159   0.00000  -0.07071  -0.07019   2.58564
   D11        1.01840   0.00091   0.00000  -0.02956  -0.02952   0.98888
   D12       -1.91146   0.00037   0.00000   0.00541   0.00552  -1.90593
   D13       -3.07745   0.00021   0.00000  -0.01776  -0.01776  -3.09520
   D14        1.14028   0.00046   0.00000  -0.02268  -0.02269   1.11759
   D15       -0.93844   0.00023   0.00000  -0.01686  -0.01685  -0.95529
   D16       -2.69803   0.00026   0.00000   0.02558   0.02330  -2.67473
   D17       -0.58977  -0.00015   0.00000   0.05139   0.05346  -0.53631
   D18        1.48002  -0.00006   0.00000   0.03038   0.03059   1.51061
   D19        0.96286   0.00005   0.00000   0.00246   0.00250   0.96536
   D20       -3.06009   0.00001   0.00000  -0.02557  -0.02534  -3.08543
   D21       -1.11545  -0.00008   0.00000  -0.00149  -0.00105  -1.11650
   D22        1.14479  -0.00011   0.00000  -0.02952  -0.02889   1.11590
   D23        3.09102  -0.00010   0.00000   0.01528   0.01452   3.10554
   D24       -0.93193  -0.00013   0.00000  -0.01275  -0.01332  -0.94525
   D25       -3.07850  -0.00017   0.00000  -0.01385  -0.01381  -3.09232
   D26       -0.96944  -0.00000   0.00000  -0.01905  -0.01907  -0.98851
   D27        1.01645   0.00010   0.00000  -0.04602  -0.04603   0.97043
   D28        1.13208   0.00009   0.00000   0.05097   0.05084   1.18292
   D29       -0.93141   0.00005   0.00000   0.05638   0.05637  -0.87504
   D30       -2.93005  -0.00013   0.00000   0.07321   0.07335  -2.85669
   D31       -1.76564  -0.00009   0.00000  -0.03251  -0.03249  -1.79814
   D32        2.28344   0.00003   0.00000   0.00954   0.00961   2.29305
   D33        0.32156  -0.00011   0.00000  -0.02386  -0.02392   0.29765
   D34       -1.91254   0.00001   0.00000   0.01819   0.01819  -1.89435
   D35        2.40373  -0.00009   0.00000  -0.01963  -0.01968   2.38406
   D36        0.16963   0.00004   0.00000   0.02242   0.02243   0.19206
   D37        1.48651  -0.00008   0.00000   0.03198   0.03198   1.51849
   D38       -0.68601   0.00019   0.00000  -0.00031  -0.00038  -0.68639
   D39       -2.77129  -0.00005   0.00000   0.01086   0.01093  -2.76036
         Item               Value     Threshold  Converged?
 Maximum Force            0.035570     0.000450     NO 
 RMS     Force            0.004226     0.000300     NO 
 Maximum Displacement     0.164105     0.001800     NO 
 RMS     Displacement     0.046980     0.001200     NO 
 Predicted change in Energy= 8.757052D-03
 GradGradGradGradGradGradGradGradGradGradGradGradGradGradGradGradGradGrad

                          Input orientation:                          
 ---------------------------------------------------------------------
 Center     Atomic      Atomic             Coordinates (Angstroms)
 Number     Number       Type             X           Y           Z
 ---------------------------------------------------------------------
      1          6           0       -1.593362    0.574956   -0.792856
      2          1           0       -0.718711    0.992310   -1.298710
      3          1           0       -2.432424    0.644359   -1.489844
      4          6           0       -1.402103   -0.875456   -0.467760
      5          1           0       -1.265322   -1.157680    0.558885
      6          1           0       -1.702755   -1.640888   -1.165890
      7          8           0       -1.836159    1.287149    0.384836
      8          1           0       -2.619676    0.751988    0.727881
      9          8           0       -3.515802   -0.548554    0.466185
     10          1           0       -3.592190   -1.196465    1.166638
     11         14           0        1.482067    0.023179    0.079796
     12          8           0        1.933725    1.190191   -0.952286
     13          1           0        2.415465    0.954859   -1.741456
     14          8           0        0.631688    0.645705    1.280223
     15          1           0       -0.261913    1.025542    1.123109
     16          8           0        0.555711   -1.079582   -0.810423
     17          1           0        0.812067   -1.994421   -0.685859
     18          8           0        2.702142   -0.906254    0.617023
     19          1           0        3.196431   -0.631400    1.385428
 ---------------------------------------------------------------------
                    Distance matrix (angstroms):
                    1          2          3          4          5
     1  C    0.000000
     2  H    1.093200   0.000000
     3  H    1.092993   1.759095   0.000000
     4  C    1.498653   2.155470   2.101441   0.000000
     5  H    2.221900   2.893423   2.967618   1.073480   0.000000
     6  H    2.249686   2.814199   2.420685   1.078733   1.843824
[...]
 384006,0.60073414,0.00707674,0.00043535,0.00251606,-0.00068099,0.00105
 197,-0.00052586,-0.00007210,-0.00152585,-0.00026396,-0.06840612,0.0242
 3769,-0.12924915,0.10566594,0.01166880,-0.00067538,0.02479358,0.000373
 99,-0.00105077,0.00015718,-0.00038564,-0.00454395,0.00131881,0.0235979
 4,-0.06764632,0.05349662,-0.02893150,0.06340384,-0.00574928,-0.0009242
 9,-0.00456709,0.00017769,-0.00026031,0.00023239,0.00105099,0.00128513,
 0.00015798,-0.13017034,0.05936531,-0.30788669,0.11674141,-0.05864214,0
 .31572814,0.00529424,0.00451190,-0.00403259,-0.00010112,0.00126130,0.0
 0007843,0.00029624,-0.00015181,0.00114971,-0.05481873,-0.06632503,-0.0
 5854990,0.00418757,-0.00753981,-0.00483441,0.06392565,-0.00692199,-0.0
 0401842,-0.01779489,-0.00012507,-0.00085138,0.00092985,0.00068403,0.00
 085563,0.00006487,-0.06163546,-0.23169767,-0.14008619,0.00182383,0.008
 12942,0.00516858,0.06320000,0.23185019,0.00116610,0.00455446,0.0113175
 9,0.00040516,-0.00051698,-0.00059916,-0.00022373,-0.00070422,0.0002327
 2,-0.06068351,-0.13762564,-0.17040092,-0.00360935,-0.01812746,-0.00399
 861,0.05564530,0.14907406,0.16623965,-0.09681093,0.01110093,-0.0075818
 2,0.00383567,0.01974677,0.02252905,0.00785740,-0.02078942,-0.02560206,
 -0.01071567,0.00458070,0.01374837,-0.00103699,-0.00142200,-0.00017971,
 0.00117248,0.00044717,0.00003212,0.36801001,0.02665591,-0.12542264,-0.
 07933901,0.00365657,0.00482370,-0.00209072,-0.00272905,0.00002240,-0.0
 0415457,-0.00215769,-0.04433701,-0.03775899,-0.00032366,0.00404053,-0.
 00148796,-0.00048502,-0.00683485,0.00333750,-0.06916199,0.22400584,0.0
 2068855,-0.08811498,-0.19384303,0.00502621,-0.02186230,-0.02671083,0.0
 0151165,-0.02027330,-0.02654909,0.00461712,-0.01571882,-0.00761469,-0.
 00147159,-0.00184246,0.00122491,0.00116226,-0.00114182,0.00101294,0.10
 187394,0.12348259,0.34669085,-0.00318748,0.00361239,0.01402562,0.00042
 499,-0.00068316,-0.00139562,-0.00010304,-0.00041489,-0.00136455,0.0053
 7357,0.00936619,0.00240579,-0.00157858,0.00140245,0.00081697,-0.002385
 78,-0.00108964,0.00034199,0.00749087,0.00826018,-0.00825589,0.04763509
 ,-0.00425516,0.00815540,0.01320282,0.00079879,-0.00247912,-0.00263659,
 -0.00055070,-0.00030788,-0.00087469,0.02232098,-0.00144049,-0.01735141
 ,-0.00082368,-0.00013500,0.00223220,-0.00053114,-0.00125809,0.00040298
 ,0.01815168,-0.00145475,-0.00403692,0.07353764,0.35868199,0.00792860,0
 .00151020,-0.00633726,-0.00040183,-0.00075933,-0.00083765,-0.00008806,
 0.00047328,-0.00151632,0.00332754,-0.00757044,-0.00342640,-0.00032978,
 0.00044475,0.00045596,0.00111989,0.00046379,-0.00024162,-0.00490205,-0
 .00060419,-0.00843100,0.02036686,0.09707386,0.10141754,-0.01408618,-0.
 00818116,0.00924885,0.00133776,-0.00105134,-0.00107066,0.00081571,-0.0
 0021611,0.00001708,0.02263548,0.00509082,-0.04143099,-0.02119062,0.000
 41961,0.01692260,-0.00434484,-0.00014950,0.00184306,-0.00378062,-0.009
 35208,0.00350861,-0.04710756,-0.09445858,-0.03527434,0.09629058,-0.012
 76134,-0.01022318,0.00167863,-0.00048404,-0.00153785,0.00105346,-0.001
 05645,0.00107949,0.00036899,-0.00158647,-0.02442507,0.00666242,0.00413
 757,-0.00014245,-0.00477462,0.00809644,0.00153493,-0.00121111,-0.02617
 315,-0.01438690,0.00842614,-0.09522868,-0.34249031,-0.12883025,0.11650
 269,0.58980993,0.01773239,0.00498051,-0.01552942,-0.00073546,0.0034484
 5,0.00208020,0.00129649,-0.00032338,0.00060607,-0.03757263,0.00079958,
 0.00344677,0.00287544,-0.00038189,0.00018300,0.00940483,0.00144416,-0.
 00313473,-0.00246880,-0.00230901,0.00752894,-0.02509436,-0.07517518,-0
 .09223433,0.02778925,-0.13638651,0.47844064,-0.00400054,-0.00150002,0.
 00252013,0.00010169,-0.00098399,-0.00027748,-0.00033028,0.00032408,0.0
 0000178,0.00865166,-0.00492159,0.00325575,-0.00201618,-0.00031843,-0.0
 0024395,-0.00039697,0.00002382,0.00031359,-0.00048383,0.00012632,-0.00
 021169,-0.00082869,-0.00657148,0.00860932,-0.01432640,0.00131083,-0.00
 339638,0.01377725,0.00203508,-0.00032348,-0.00186635,0.00014042,0.0004
 8332,-0.00005781,-0.00006287,-0.00009091,-0.00000750,-0.00816724,0.001
 20363,0.00187436,0.00038062,0.00057411,-0.00023817,0.00071263,0.000255
 65,-0.00087018,-0.00240820,-0.00084778,-0.00013163,0.00255279,-0.01803
 213,0.03901406,-0.00899512,-0.19952716,0.20390411,0.01222808,0.2168323
 6,0.00072933,0.00104516,-0.00175620,0.00013060,0.00007649,0.00041803,0
 .00060771,-0.00025850,0.00028647,0.00047173,0.00094737,-0.00443211,-0.
 00024278,0.00010470,0.00155270,0.00027526,0.00020589,-0.00052379,-0.00
 212347,-0.00188514,-0.00001110,-0.00059223,-0.00885795,0.00910333,0.01
 213330,0.25030966,-0.38036164,-0.01032253,-0.24154899,0.37506052,-0.00
 305015,0.00163765,-0.00023070,-0.00054166,0.00265084,-0.00327103,0.001
 58102,-0.00018064,-0.00041444,-0.01934038,-0.00248046,0.00210423,-0.00
 471029,-0.00357563,-0.00011607,0.00026358,-0.00009663,0.00062545,0.005
 02012,-0.00191241,0.00077256,-0.00181718,-0.00018630,0.00065625,0.0067
 0015,0.00073422,-0.00275958,-0.00066008,-0.00091247,0.00074628,0.52740
 036,0.00313202,0.00324414,0.00305749,0.00218289,0.00067664,0.00130052,
 -0.00063690,-0.00134653,-0.00020698,-0.03402461,0.01010177,0.00891750,
 0.00159977,0.00227692,0.00152163,0.00172132,-0.00107757,-0.00237612,-0
 .00864848,-0.00341983,-0.00514736,0.00238211,0.00427482,-0.00013976,0.
 00697605,-0.00467002,-0.00442142,-0.00006485,-0.00020905,0.00061631,-0
 .10603357,0.45879084,-0.00178521,0.00555448,0.00994901,-0.00212506,0.0
 0132421,-0.00153665,0.00030091,-0.00044810,-0.00130736,-0.02891765,0.0
 0528586,0.01165622,0.00771031,0.00341536,0.00227900,0.00137813,-0.0007
 9208,-0.00289457,-0.02155805,-0.00117902,-0.01547023,0.00233372,0.0036
 8657,0.00027324,0.00648172,-0.00319181,-0.00564088,0.00085600,-0.00051
 899,0.00055394,-0.15332462,0.00123873,0.52614393,0.00051793,-0.0003469
 6,-0.00074744,0.00004986,-0.00031602,0.00062258,-0.00041596,-0.0001520
 9,0.00015828,0.00303288,0.00001761,-0.00136135,0.00014870,0.00044117,0
 .00029654,-0.00019751,0.00007801,0.00004401,-0.00155144,0.00072958,-0.
 00005511,0.00058659,0.00018440,-0.00016516,-0.00168899,-0.00035277,0.0
 0081798,0.00016508,0.00026705,-0.00016024,-0.08165590,-0.06410155,0.07
 037760,0.37969554,-0.00028307,-0.00033820,-0.00029303,-0.00040080,-0.0
 0063976,0.00018058,-0.00009353,0.00018506,0.00008748,0.00887486,-0.003
 08721,-0.00280472,-0.00073352,-0.00006946,-0.00003693,-0.00067596,0.00
 031141,0.00061520,-0.00034250,0.00149799,-0.00008640,-0.00019706,-0.00
 083240,-0.00000592,-0.00246475,0.00097455,0.00131530,0.00015468,0.0001
 6422,-0.00021665,-0.04318399,-0.13552503,0.08329393,-0.05590153,0.2261
 2256,0.00042529,-0.00099327,-0.00202604,0.00033105,0.00014718,-0.00054
 733,0.00019096,0.00005185,0.00016988,0.00043037,0.00021026,-0.00042785
 ,-0.00105424,-0.00082068,-0.00050927,0.00011103,0.00002234,0.00027698,
 0.00380680,-0.00039433,0.00353385,-0.00053856,-0.00038972,-0.00008061,
 0.00019863,0.00026712,0.00039793,-0.00028937,-0.00005005,-0.00000401,0
 .06008451,0.10244602,-0.13436101,-0.32263522,-0.01285844,0.35798440,-0
 .00003238,0.00014930,0.00016011,-0.00007875,0.00006971,0.00014248,-0.0
 0000761,-0.00003510,-0.00000918,-0.00162781,0.00041282,0.00058787,0.00
 019368,0.00001465,0.00000072,0.00010388,-0.00005907,-0.00008392,-0.000
 07683,-0.00020582,-0.00030573,-0.00001657,0.00010092,0.00003759,0.0005
 4022,-0.00008185,-0.00032451,-0.00001414,-0.00005571,0.00005543,-0.007
 80652,0.00538911,0.00726249,-0.29630772,0.11408448,0.25090063,0.301850
 86,0.00003249,0.00011674,0.00003418,-0.00002505,-0.00000561,-0.0000424
 9,0.00001248,-0.00002543,-0.00001067,-0.00134297,0.00037865,0.00041761
 ,0.00015875,0.00003191,0.00001583,0.00008274,-0.00003775,-0.00007640,-
 0.00005764,-0.00015149,-0.00009803,0.00001715,0.00012389,0.00001349,0.
 00041257,-0.00012721,-0.00023015,-0.00001778,-0.00002451,0.00003696,-0
 .01622981,-0.00010944,0.01641844,0.13604742,-0.06779405,-0.11156712,-0
 .12059873,0.07095345,-0.00009638,-0.00011798,-0.00006876,0.00021930,0.
 00005223,0.00021615,-0.00009700,-0.00001568,0.00005025,0.00079339,-0.0
 0001055,-0.00029667,-0.00005789,-0.00006891,-0.00002613,-0.00004979,0.
 00000279,0.00008312,-0.00001677,0.00002845,0.00002238,0.00001515,-0.00
 003562,-0.00001569,-0.00026305,0.00001698,0.00014967,0.00000448,0.0000
 2072,-0.00001053,0.01537188,-0.00565531,-0.01189818,0.24183477,-0.0890
 8789,-0.21345459,-0.25581192,0.09560961,0.22337930,-0.00267363,0.00726
 344,0.01030431,-0.00006925,-0.00050105,-0.00066539,-0.00033180,-0.0012
 0420,-0.00149465,-0.00926624,-0.00096309,0.00160050,-0.00071463,0.0015
 4144,-0.00086217,-0.00013935,-0.00024626,-0.00177984,-0.05327926,0.011
 47048,-0.02860265,0.00393403,0.00474414,-0.00091419,-0.00139202,-0.004
 00888,-0.00090837,0.00067096,0.00042248,-0.00044155,-0.19693415,0.0920
 7476,0.15249447,-0.00597189,0.00102562,0.01784730,0.00140714,-0.000954
 42,0.00132597,0.24009883,0.00121982,-0.00630209,-0.00589959,-0.0007788
 2,-0.00028892,0.00007120,-0.00001041,0.00140655,0.00121532,0.00831517,
 -0.00519397,-0.00252663,0.00078039,-0.00008405,-0.00089906,-0.00070718
 ,0.00108927,-0.00092135,0.02993600,0.00479509,0.01412091,-0.00217556,-
 0.00459071,0.00070211,-0.00252842,0.00389792,0.00133896,0.00046870,0.0
 0009549,-0.00013834,0.09907526,-0.10821631,-0.10112471,-0.00782151,0.0
 0798615,0.00727689,-0.00081182,-0.00043148,0.00211010,-0.11280532,0.12
 037598,0.00099269,-0.00056995,-0.00163512,-0.00018052,-0.00057421,0.00
 154757,-0.00084018,0.00015365,0.00085956,0.00885546,0.00015765,-0.0031
 7415,-0.00265233,-0.00175052,-0.00308265,-0.00029403,-0.00001888,0.000
 49026,-0.00565486,0.00221291,0.00660522,-0.00009753,0.00015193,-0.0009
 6217,-0.00262512,-0.00024896,0.00225572,-0.00052500,0.00006774,-0.0004
 8610,0.16244902,-0.10165501,-0.23049620,0.01660412,-0.00235326,-0.0116
 7792,0.00047190,0.00198813,-0.00036879,-0.17101857,0.11894995,0.259803
 09,0.00752109,-0.01184205,-0.01277276,-0.00030036,0.00128857,0.0036230
 8,0.00091519,0.00370931,0.00537076,0.00987337,-0.00153740,-0.00111789,
 0.00190228,0.00108008,0.00097798,-0.00000897,0.00155888,-0.00067405,-0
 .22754269,0.03000088,-0.10279343,-0.00702582,-0.00765354,0.00043647,-0
 .00051413,0.00599447,0.00199039,-0.00008417,-0.00029067,0.00034104,-0.
 01119668,0.01428387,0.03036880,0.00243681,0.00046130,-0.00633862,0.000
 35463,0.00008794,0.00008475,0.02105216,-0.02362177,-0.00650301,0.20679
 306,-0.02187541,0.00193512,-0.01626140,0.00130128,0.00031908,-0.000668
 30,0.00068914,-0.00246132,-0.00391735,-0.00494105,0.00007803,-0.001870
 44,-0.00036524,-0.00279587,-0.00035818,0.00054091,-0.00028143,0.000575
 69,0.03749732,-0.04260104,0.01039697,0.00071203,0.00460931,-0.00227852
 ,0.00050064,-0.00419508,0.00002862,-0.00049124,-0.00041608,-0.00009800
 ,0.00499377,-0.00416836,-0.01013263,-0.00112124,-0.00096371,0.00278291
 ,-0.00000271,-0.00005324,0.00009932,-0.01249415,-0.00543031,0.00161302
 ,-0.00487333,0.05361512,-0.03142128,-0.00759746,-0.03371443,-0.0009005
 2,0.00113932,0.00096509,0.00123218,-0.00261258,-0.00242924,0.00274333,
 -0.00259873,0.00138415,0.00037455,0.00062009,0.00110885,0.00003791,0.0
 0074398,-0.00039304,-0.07845680,0.00152172,-0.09477777,-0.00210501,-0.
 00687980,0.00287359,0.00088797,0.00538316,-0.00044573,0.00032710,0.000
 38794,0.00048825,0.00279641,0.00066957,0.00874322,0.00053094,0.0004007
 5,-0.00256950,0.00009994,0.00011503,-0.00018326,0.00760983,-0.00549412
 ,-0.01639148,0.09807858,0.01675968,0.13953660,-0.00586644,0.00256396,-
 0.00259593,-0.00188278,0.00144575,0.00118927,-0.00019567,0.00111836,0.
 00119635,0.04190744,-0.02150165,-0.01016500,-0.01822967,0.00082271,0.0
 0420890,-0.01118813,0.00238015,0.00689095,0.00530019,0.00475330,0.0033
 6720,-0.00201124,-0.00508450,-0.00011591,-0.01701402,0.00561562,0.0097
 5681,-0.00015979,0.00171290,-0.00142614,-0.06490135,-0.00225801,-0.014
 37161,-0.00207338,-0.02002749,-0.00311844,0.00279506,0.00215648,-0.001
 65775,0.01440482,-0.00235371,0.00044693,-0.00830365,0.00104332,-0.0030
 3113,0.16758277,0.00797664,-0.00694374,0.00062035,0.00367356,-0.000440
 62,-0.00215214,0.00149665,-0.00062222,-0.00058527,-0.00632499,-0.01710
 103,-0.00119702,-0.00106948,-0.00066217,-0.00189017,-0.00326526,0.0017
 9895,0.00353364,0.00368700,-0.00020632,0.00009963,-0.00139809,-0.00165
 444,0.00043035,-0.00060998,0.00335379,0.00082202,0.00026953,-0.0002245
 1,-0.00026957,-0.03552343,-0.08467283,-0.04898424,-0.01640569,-0.01528
 288,-0.00187960,0.00054572,-0.00167353,-0.00098425,-0.00078763,-0.0067
 9006,-0.01676923,-0.00356158,0.00106485,-0.00085501,-0.11508118,0.6115
 3136,0.00006124,-0.00089363,-0.00179849,-0.00072864,-0.00022225,0.0003
 2082,0.00017685,0.00018015,0.00017282,0.00111050,-0.00213166,-0.017623
 40,0.00925574,-0.00167397,-0.00191615,-0.00162712,0.00142313,0.0015799
 1,0.00301871,0.00030689,0.00392250,-0.00049063,0.00023525,-0.00001186,
 0.00311355,-0.00027859,0.00112713,-0.00061493,-0.00011311,0.00027084,-
 0.03163225,-0.02830357,-0.07543804,0.00171332,0.00325317,0.00780953,-0
 .00149584,-0.00107005,-0.00076832,0.00171372,-0.01807480,-0.00775836,-
 0.00580293,0.00169073,-0.00243920,0.05651624,0.03081799,0.10957323,-0.
 00166751,0.00211103,-0.00091298,-0.00114960,0.00015991,0.00070437,-0.0
 0033768,0.00028076,0.00025864,0.00691661,0.00386780,-0.00251476,-0.000
 53995,0.00049239,0.00090252,-0.00114634,-0.00009291,-0.00056201,-0.000
 30373,0.00002217,0.00033447,0.00011602,0.00015361,-0.00009394,-0.00062
 072,-0.00054950,0.00040983,-0.00018746,0.00013307,0.00007694,0.0084391
 4,-0.01199872,0.00179751,-0.00381145,-0.00241136,-0.00030463,0.0000220
 6,-0.00059720,0.00005661,-0.00045528,-0.00060684,-0.00138590,-0.000279
 20,0.00008015,-0.00019383,-0.08008069,0.16432225,-0.01657938,0.0765440
 6,-0.00102347,-0.00015781,0.00028995,0.00014278,0.00019698,-0.00012777
 ,-0.00007266,0.00025485,-0.00009104,0.00762956,-0.00034694,-0.00202399
 ,-0.00059604,0.00000816,0.00009677,-0.00050224,0.00017656,0.00009920,0
 .00015705,0.00045719,0.00001600,0.00000666,-0.00037676,-0.00006786,-0.
 00209518,0.00024422,0.00108931,-0.00000592,0.00024674,-0.00011040,0.00
 515755,-0.01535592,0.00141402,-0.00125078,0.00011079,-0.00052047,-0.00
 019922,-0.00045429,0.00001781,-0.00046748,0.00094934,-0.00019028,-0.00
 021412,-0.00009085,-0.00011914,0.14729597,-0.48860807,0.01850575,-0.15
 767138,0.50186506,0.00012844,0.00012885,-0.00031726,0.00004191,-0.0003
 2030,0.00018690,-0.00014419,0.00001740,-0.00004071,-0.00156809,-0.0002
 9389,0.00024098,0.00107659,-0.00078127,-0.00065113,-0.00041416,-0.0000
 1562,0.00034687,-0.00028266,-0.00014023,0.00010628,0.00005371,0.000045
 87,0.00001433,0.00022441,0.00003406,-0.00020773,0.00012789,-0.00005271
 ,0.00001288,0.00397529,-0.01764352,0.00054726,0.00025459,0.00087363,-0
 .00027260,0.00006527,0.00012012,0.00033166,-0.00153131,-0.00047156,-0.
 00371500,0.00016125,-0.00000199,0.00004222,-0.02094859,0.03755238,-0.0
 1017168,0.01708676,-0.02173997,0.01337405,-0.00007919,0.00045627,0.000
 77974,0.00007717,-0.00029297,0.00031507,-0.00021922,-0.00001406,-0.000
 11876,0.00574986,-0.00111416,-0.00222015,0.00031134,0.00043262,0.00022
 499,-0.00044591,0.00016850,0.00017635,-0.00456299,0.00069291,-0.001977
 05,0.00073879,0.00033062,-0.00021689,-0.00232227,-0.00032163,0.0010554
 7,0.00023265,0.00032278,-0.00025554,-0.14951739,0.09672336,-0.03784966
 ,0.00754241,0.00319034,-0.00101760,-0.00162562,0.00052982,-0.00159923,
 -0.01407250,0.01718643,-0.00085291,0.00642594,-0.00187585,0.00194758,-
 0.01543991,0.00138446,-0.01533602,-0.00153225,0.00296905,0.00143711,0.
 21887916,-0.00028337,-0.00082115,-0.00118476,-0.00041986,-0.00001470,-
 0.00010352,0.00013273,0.00022009,0.00016914,0.00118590,-0.00060155,-0.
 00016376,-0.00025330,-0.00085283,-0.00019499,0.00010119,0.00005615,0.0
 0027884,0.00455012,-0.00002284,0.00234298,-0.00081606,-0.00095895,0.00
 015953,0.00041687,0.00100607,-0.00002724,-0.00002808,-0.00023414,0.000
 07036,0.08714037,-0.11971764,0.02659672,0.00907241,-0.00874358,0.01548
 821,0.00102634,-0.00106650,-0.00158204,0.01867353,-0.00289519,0.000309
 98,-0.00593452,0.00230128,-0.00188284,-0.00406885,0.00694724,-0.003044
 09,0.00179570,0.00029799,0.00262134,-0.10862284,0.14124416,0.00015080,
 -0.00088345,-0.00146190,0.00007366,-0.00003929,0.00021354,-0.00005174,
 0.00016466,0.00021131,0.00760339,-0.00200962,-0.00373390,-0.00100904,-
 0.00018389,-0.00028943,-0.00060851,0.00031013,0.00060164,0.00310674,0.
 00056973,0.00252595,-0.00030512,-0.00069850,-0.00009602,-0.00196703,0.
 00062543,0.00148181,-0.00012874,0.00022577,-0.00021284,-0.05551917,0.0
 4877020,-0.07153708,-0.00831679,0.01782772,-0.00546901,-0.00163076,-0.
 00157392,0.00296600,0.01217965,-0.00866686,0.00891131,-0.00455231,0.00
 130164,-0.00158094,-0.02734872,0.00119740,-0.00857751,0.00088184,0.003
 51973,0.00046341,0.21242861,0.00824018,0.58426116,-0.00000178,-0.00020
 523,-0.00039574,-0.00006224,0.00001593,-0.00002786,0.00004449,0.000035
 81,0.00006197,0.00065689,-0.00033475,-0.00057346,-0.00031014,-0.000114
 84,-0.00016537,-0.00006999,0.00005214,0.00013232,0.00145823,-0.0000405
 8,0.00081056,-0.00023800,-0.00020772,0.00001962,0.00006847,0.00021292,
 0.00013123,-0.00011075,-0.00001561,-0.00000313,-0.00727263,0.00130143,
 -0.02142983,-0.00050156,-0.00107571,0.00097010,0.00032641,0.00028575,-
 0.00005652,0.00373206,-0.00276041,0.00280985,-0.00201885,0.00068167,-0
 .00055776,-0.00464357,0.00067150,-0.00237212,0.00007395,0.00073986,0.0
 0025578,-0.05014008,-0.00366829,-0.13498675,0.05900909,0.00000656,0.00
 019186,0.00023280,0.00000377,-0.00002611,0.00003541,-0.00003623,-0.000
 02412,-0.00002405,0.00032026,0.00002336,-0.00018494,0.00001632,0.00019
 334,0.00002139,-0.00004497,-0.00000098,-0.00004212,-0.00085137,0.00004
 272,-0.00043120,0.00015352,0.00016563,-0.00002917,-0.00021703,-0.00017
 566,0.00008374,-0.00000267,0.00007421,-0.00002936,0.00892571,-0.000876
 61,0.01814326,0.00093248,-0.00407647,0.00078091,0.00025699,0.00034992,
 -0.00039977,-0.00278342,-0.00037271,-0.00147467,0.00106368,-0.00046550
 ,0.00029847,-0.00053312,0.00018621,-0.00060734,0.00050905,0.00058275,0
 .00006739,-0.01214565,-0.01614392,-0.06869705,0.00442611,0.02035208,-0
 .00004251,-0.00002493,-0.00012213,-0.00006531,0.00001578,-0.00002894,0
 .00001767,0.00001670,0.00002765,-0.00043608,0.00005639,0.00024983,-0.0
 0008413,-0.00007788,0.00000423,0.00004777,-0.00000407,0.00000479,0.000
 71132,-0.00011664,0.00023393,-0.00012031,-0.00009511,0.00005294,0.0002
 6216,0.00009579,-0.00014342,-0.00000596,-0.00003923,0.00005137,-0.0023
 1402,-0.00298891,-0.00956563,0.00018657,-0.00010453,0.00122718,-0.0001
 2256,-0.00010056,-0.00010761,0.00314295,-0.00156843,-0.00072480,-0.000
 87811,0.00033823,-0.00021738,0.00120658,0.00049275,0.00172623,0.000037
 96,-0.00005760,-0.00029075,-0.15692111,-0.04809404,-0.50867751,0.15537
 711,0.05225629,0.51630001\\-0.00000033,-0.00000342,-0.00000288,-0.0000
 0062,-0.00000388,-0.00000328,-0.00000006,-0.00000634,-0.00000397,0.000
 00183,-0.00000229,0.00000089,0.00000025,0.00000020,0.00000171,0.000002
 85,-0.00000429,0.00000271,-0.00000110,-0.00000090,-0.00000426,-0.00000
 126,-0.00000124,-0.00000315,0.00000017,-0.00000250,-0.00000112,0.00000
 033,-0.00000040,0.00000040,-0.00000042,0.00000262,0.00000180,-0.000000
 72,0.00000150,-0.00000138,-0.00000017,0.00000084,0.00000023,-0.0000021
 0,0.00000499,-0.00000115,-0.00000388,0.00000152,-0.00000465,0.00000191
 ,-0.00000092,0.00000274,0.00000312,-0.00000009,0.00000617,0.00000051,0
 .00000595,0.00000443,-0.00000029,0.00000863,0.00000477\\\@
 The archive entry for this job was punched.


 FESTINA LENTE!
     - IMPERATOR AUGUSTUS 
 Job cpu time:       0 days  3 hours 35 minutes 28.8 seconds.
 Elapsed time:       0 days  0 hours 14 minutes  8.4 seconds.
 File lengths (MBytes):  RWF=    301 Int=      0 D2E=      0 Chk=     16 Scr=      1
 Normal termination of Gaussian 16 at Mon Oct  2 21:15:00 2023.
