 Entering Gaussian System, Link 0=/opt/software/gaussian/g16.c01/g16
 Initial command:
 /opt/software/gaussian/g16.c01/l1.exe "/scratch/arhender/18449848/Gau-212308.inp" -scrdir="/scratch/arhender/18449848/"
 Entering Link 1 = /opt/software/gaussian/g16.c01/l1.exe PID=    212310.
  
 Copyright (c) 1988-2019, Gaussian, Inc.  All Rights Reserved.
  
 This is part of the Gaussian(R) 16 program.  It is based on
 the Gaussian(R) 09 system (copyright 2009, Gaussian, Inc.),
 the Gaussian(R) 03 system (copyright 2003, Gaussian, Inc.),
 the Gaussian(R) 98 system (copyright 1998, Gaussian, Inc.),
 the Gaussian(R) 94 system (copyright 1995, Gaussian, Inc.),
 the Gaussian 92(TM) system (copyright 1992, Gaussian, Inc.),
 the Gaussian 90(TM) system (copyright 1990, Gaussian, Inc.),
 the Gaussian 88(TM) system (copyright 1988, Gaussian, Inc.),
 the Gaussian 86(TM) system (copyright 1986, Carnegie Mellon
 University), and the Gaussian 82(TM) system (copyright 1983,
 Carnegie Mellon University). Gaussian is a federally registered
 trademark of Gaussian, Inc.
  
 This software contains proprietary and confidential information,
 including trade secrets, belonging to Gaussian, Inc.
  
 This software is provided under written license and may be
 used, copied, transmitted, or stored only in accord with that
 written license.
  
 The following legend is applicable only to US Government
 contracts under FAR:
  
                    RESTRICTED RIGHTS LEGEND
  
 Use, reproduction and disclosure by the US Government is
 subject to restrictions as set forth in subparagraphs (a)
 and (c) of the Commercial Computer Software - Restricted
 Rights clause in FAR 52.227-19.
  
 Gaussian, Inc.
 340 Quinnipiac St., Bldg. 40, Wallingford CT 06492
  
  
 ---------------------------------------------------------------
 Warning -- This program may not be used in any manner that
 competes with the business of Gaussian, Inc. or will provide
 assistance to any competitor of Gaussian, Inc.  The licensee
 of this program is prohibited from giving any competitor of
 Gaussian, Inc. access to this program.  By using this program,
 the user acknowledges that Gaussian, Inc. is engaged in the
 business of creating and licensing software in the field of
 computational chemistry and represents and warrants to the
 licensee that it is not a competitor of Gaussian, Inc. and that
 it will not use this program in any manner prohibited above.
 ---------------------------------------------------------------
  

 Cite this work as:
 Gaussian 16, Revision C.01,
 M. J. Frisch, G. W. Trucks, H. B. Schlegel, G. E. Scuseria, 
 M. A. Robb, J. R. Cheeseman, G. Scalmani, V. Barone, 
 G. A. Petersson, H. Nakatsuji, X. Li, M. Caricato, A. V. Marenich, 
 J. Bloino, B. G. Janesko, R. Gomperts, B. Mennucci, H. P. Hratchian, 
 J. V. Ortiz, A. F. Izmaylov, J. L. Sonnenberg, D. Williams-Young, 
 F. Ding, F. Lipparini, F. Egidi, J. Goings, B. Peng, A. Petrone, 
 T. Henderson, D. Ranasinghe, V. G. Zakrzewski, J. Gao, N. Rega, 
 G. Zheng, W. Liang, M. Hada, M. Ehara, K. Toyota, R. Fukuda, 
 J. Hasegawa, M. Ishida, T. Nakajima, Y. Honda, O. Kitao, H. Nakai, 
 T. Vreven, K. Throssell, J. A. Montgomery, Jr., J. E. Peralta, 
 F. Ogliaro, M. J. Bearpark, J. J. Heyd, E. N. Brothers, K. N. Kudin, 
 V. N. Staroverov, T. A. Keith, R. Kobayashi, J. Normand, 
 K. Raghavachari, A. P. Rendell, J. C. Burant, S. S. Iyengar, 
 J. Tomasi, M. Cossi, J. M. Millam, M. Klene, C. Adamo, R. Cammi, 
 J. W. Ochterski, R. L. Martin, K. Morokuma, O. Farkas, 
 J. B. Foresman, and D. J. Fox, Gaussian, Inc., Wallingford CT, 2019.
 
 ******************************************
 Gaussian 16:  ES64L-G16RevC.01  3-Jul-2019
                15-Nov-2023 
 ******************************************
 %chk=TSOpt_OfPointBeforeWeirdDropoff.chk
 %mem=8GB
 %nprocs=16
 Will use up to   16 processors via shared memory.
 ------------------------------------------------------------------
 # opt=(calcall,ts,noeigen) freq wb97xd/def2tzvpp geom=connectivity
 ------------------------------------------------------------------
 1/5=1,10=4,11=1,18=20,26=3,38=1,57=2/1,3;
 2/9=110,12=2,17=6,18=5,40=1/2;
 3/5=44,7=202,11=2,25=1,30=1,71=2,74=-58,140=1/1,2,3;
 4//1;
 5/5=2,38=5/2;
 8/6=4,10=90,11=11/1;
 11/6=1,8=1,9=11,15=111,16=1/1,2,10;
 10/6=1/2;
 6/7=2,8=2,9=2,10=2,18=1,28=1/1;
 7/10=1,25=1/1,2,3,16;
 1/5=1,10=4,11=1,18=20,26=3/3(3);
 2/9=110/2;
 7/8=1,9=1,25=1,44=-1/16;
 99//99;
 2/9=110/2;
 3/5=44,7=202,11=2,25=1,30=1,71=2,74=-58,140=1/1,2,3;
 4/5=5,16=3,69=1/1;
 5/5=2,38=5/2;
 8/6=4,10=90,11=11/1;
 11/6=1,8=1,9=11,15=111,16=1/1,2,10;
 10/6=1/2;
 7/10=1,25=1/1,2,3,16;
 1/5=1,10=4,11=1,18=20,26=3/3(-8);
 2/9=110/2;
 6/7=2,8=2,9=2,10=2,18=1,19=2,28=1/1;
 7/8=1,9=1,25=1,44=-1/16;
 99//99;
 ----------------------------------------------------------------------
 TS opt of point before sudden energy drop in formation of new bond wit
 h SN1 like intermediate EGOH attack on silicic acid
 ----------------------------------------------------------------------
 Symbolic Z-matrix:
 Charge = -1 Multiplicity = 1
 Si                    0.71894  -0.80179  -0.26012 
 O                     0.45379  -2.22997  -0.84912 
 O                     2.33515   2.12882   0.35255 
 H                     3.12317   2.03181  -0.17889 
 O                     0.62276   0.6046   -0.9597 
 H                     1.63537   1.66861  -0.19061 
 O                     1.81483  -0.75296   0.97884 
 H                     2.12058   0.15102   1.11086 
 C                    -2.1928   -0.43385   0.43989 
 H                    -2.86994  -0.78374   1.22466 
 H                    -2.57872  -0.74647  -0.53372 
 C                    -2.10588   1.08578   0.46556 
 H                    -1.42691   1.37371   1.28237 
 H                    -3.10169   1.46231   0.72429 
 O                    -0.92989  -1.0648    0.67484 
 O                    -1.74199   1.65734  -0.74802 
 H                    -0.8198    1.33341  -0.94826 
 H                    -0.79239  -1.92159   0.12311 
 
 Add virtual bond connecting atoms H18        and O15        Dist= 1.94D+00.
 Add virtual bond connecting atoms H6         and O5         Dist= 3.13D+00.

 GradGradGradGradGradGradGradGradGradGradGradGradGradGradGradGradGradGrad
 Berny optimization.
 Initialization pass.
                           ----------------------------
                           !    Initial Parameters    !
                           ! (Angstroms and Degrees)  !
 --------------------------                            --------------------------
 ! Name  Definition              Value          Derivative Info.                !
 --------------------------------------------------------------------------------
 ! R1    R(1,2)                  1.5675         calculate D2E/DX2 analytically  !
 ! R2    R(1,5)                  1.5737         calculate D2E/DX2 analytically  !
 ! R3    R(1,7)                  1.6548         calculate D2E/DX2 analytically  !
 ! R4    R(1,15)                 1.9136         calculate D2E/DX2 analytically  !
 ! R5    R(3,4)                  0.9554         calculate D2E/DX2 analytically  !
 ! R6    R(3,6)                  0.9983         calculate D2E/DX2 analytically  !
 ! R7    R(5,6)                  1.658          calculate D2E/DX2 analytically  !
 ! R8    R(7,8)                  0.9634         calculate D2E/DX2 analytically  !
 ! R9    R(9,10)                 1.094          calculate D2E/DX2 analytically  !
 ! R10   R(9,11)                 1.093          calculate D2E/DX2 analytically  !
 ! R11   R(9,12)                 1.5223         calculate D2E/DX2 analytically  !
 ! R12   R(9,15)                 1.4312         calculate D2E/DX2 analytically  !
 ! R13   R(12,13)                1.1005         calculate D2E/DX2 analytically  !
 ! R14   R(12,14)                1.0956         calculate D2E/DX2 analytically  !
 ! R15   R(12,16)                1.3899         calculate D2E/DX2 analytically  !
 ! R16   R(15,18)                1.0283         calculate D2E/DX2 analytically  !
 ! R17   R(16,17)                0.9977         calculate D2E/DX2 analytically  !
 ! A1    A(2,1,5)              129.5597         calculate D2E/DX2 analytically  !
 ! A2    A(2,1,7)              114.8503         calculate D2E/DX2 analytically  !
 ! A3    A(2,1,15)              84.9864         calculate D2E/DX2 analytically  !
 ! A4    A(5,1,7)              110.2999         calculate D2E/DX2 analytically  !
 ! A5    A(5,1,15)             106.7            calculate D2E/DX2 analytically  !
 ! A6    A(7,1,15)             102.0558         calculate D2E/DX2 analytically  !
 ! A7    A(4,3,6)              103.2214         calculate D2E/DX2 analytically  !
 ! A8    A(1,5,6)              109.2673         calculate D2E/DX2 analytically  !
 ! A9    A(1,7,8)              109.9056         calculate D2E/DX2 analytically  !
 ! A10   A(10,9,11)            109.2071         calculate D2E/DX2 analytically  !
 ! A11   A(10,9,12)            110.0296         calculate D2E/DX2 analytically  !
 ! A12   A(10,9,15)            106.7047         calculate D2E/DX2 analytically  !
 ! A13   A(11,9,12)            108.7047         calculate D2E/DX2 analytically  !
 ! A14   A(11,9,15)            109.3732         calculate D2E/DX2 analytically  !
 ! A15   A(12,9,15)            112.7634         calculate D2E/DX2 analytically  !
 ! A16   A(9,12,13)            107.9938         calculate D2E/DX2 analytically  !
 ! A17   A(9,12,14)            107.1667         calculate D2E/DX2 analytically  !
 ! A18   A(9,12,16)            114.2502         calculate D2E/DX2 analytically  !
 ! A19   A(13,12,14)           107.1918         calculate D2E/DX2 analytically  !
 ! A20   A(13,12,16)           112.2674         calculate D2E/DX2 analytically  !
 ! A21   A(14,12,16)           107.6278         calculate D2E/DX2 analytically  !
 ! A22   A(1,15,9)             128.282          calculate D2E/DX2 analytically  !
 ! A23   A(1,15,18)             74.7615         calculate D2E/DX2 analytically  !
 ! A24   A(9,15,18)            113.4058         calculate D2E/DX2 analytically  !
 ! A25   A(12,16,17)           106.482          calculate D2E/DX2 analytically  !
 ! A26   L(3,6,5,7,-1)         168.001          calculate D2E/DX2 analytically  !
 ! A27   L(3,6,5,7,-2)         183.5354         calculate D2E/DX2 analytically  !
 ! D1    D(2,1,5,6)           -153.6533         calculate D2E/DX2 analytically  !
 ! D2    D(7,1,5,6)             -1.1826         calculate D2E/DX2 analytically  !
 ! D3    D(15,1,5,6)           108.9065         calculate D2E/DX2 analytically  !
 ! D4    D(2,1,7,8)            163.2669         calculate D2E/DX2 analytically  !
 ! D5    D(5,1,7,8)              6.3896         calculate D2E/DX2 analytically  !
 ! D6    D(15,1,7,8)          -106.7083         calculate D2E/DX2 analytically  !
 ! D7    D(2,1,15,9)          -108.2486         calculate D2E/DX2 analytically  !
 ! D8    D(2,1,15,18)           -0.2197         calculate D2E/DX2 analytically  !
 ! D9    D(5,1,15,9)            21.6299         calculate D2E/DX2 analytically  !
 ! D10   D(5,1,15,18)          129.6588         calculate D2E/DX2 analytically  !
 ! D11   D(7,1,15,9)           137.3805         calculate D2E/DX2 analytically  !
 ! D12   D(7,1,15,18)         -114.5905         calculate D2E/DX2 analytically  !
 ! D13   D(4,3,5,1)             93.3366         calculate D2E/DX2 analytically  !
 ! D14   D(10,9,12,13)          78.8581         calculate D2E/DX2 analytically  !
 ! D15   D(10,9,12,14)         -36.3304         calculate D2E/DX2 analytically  !
 ! D16   D(10,9,12,16)        -155.4598         calculate D2E/DX2 analytically  !
 ! D17   D(11,9,12,13)        -161.5962         calculate D2E/DX2 analytically  !
 ! D18   D(11,9,12,14)          83.2153         calculate D2E/DX2 analytically  !
 ! D19   D(11,9,12,16)         -35.9141         calculate D2E/DX2 analytically  !
 ! D20   D(15,9,12,13)         -40.1386         calculate D2E/DX2 analytically  !
 ! D21   D(15,9,12,14)        -155.327          calculate D2E/DX2 analytically  !
 ! D22   D(15,9,12,16)          85.5436         calculate D2E/DX2 analytically  !
 ! D23   D(10,9,15,1)         -175.6516         calculate D2E/DX2 analytically  !
 ! D24   D(10,9,15,18)          95.6795         calculate D2E/DX2 analytically  !
 ! D25   D(11,9,15,1)           66.3387         calculate D2E/DX2 analytically  !
 ! D26   D(11,9,15,18)         -22.3302         calculate D2E/DX2 analytically  !
 ! D27   D(12,9,15,1)          -54.739          calculate D2E/DX2 analytically  !
 ! D28   D(12,9,15,18)        -143.4079         calculate D2E/DX2 analytically  !
 ! D29   D(9,12,16,17)         -63.4173         calculate D2E/DX2 analytically  !
 ! D30   D(13,12,16,17)         59.9885         calculate D2E/DX2 analytically  !
 ! D31   D(14,12,16,17)        177.714          calculate D2E/DX2 analytically  !
 --------------------------------------------------------------------------------
 Trust Radius=3.00D-01 FncErr=1.00D-07 GrdErr=1.00D-06 EigMax=2.50D+02 EigMin=1.00D-04
 Number of steps in this run=     85 maximum allowed number of steps=    108.
 Search for a saddle point of order  1.
 GradGradGradGradGradGradGradGradGradGradGradGradGradGradGradGradGradGrad

                          Input orientation:                          
 ---------------------------------------------------------------------
 Center     Atomic      Atomic             Coordinates (Angstroms)
 Number     Number       Type             X           Y           Z
 ---------------------------------------------------------------------
      1         14           0        0.718941   -0.801785   -0.260117
      2          8           0        0.453786   -2.229968   -0.849116
      3          8           0        2.335153    2.128822    0.352551
      4          1           0        3.123168    2.031810   -0.178892
      5          8           0        0.622761    0.604603   -0.959698
      6          1           0        1.635366    1.668614   -0.190614
      7          8           0        1.814829   -0.752958    0.978839
      8          1           0        2.120583    0.151024    1.110860
      9          6           0       -2.192801   -0.433853    0.439893
     10          1           0       -2.869937   -0.783736    1.224655
     11          1           0       -2.578717   -0.746465   -0.533722
     12          6           0       -2.105884    1.085776    0.465557
     13          1           0       -1.426911    1.373710    1.282368
     14          1           0       -3.101687    1.462306    0.724290
     15          8           0       -0.929885   -1.064796    0.674838
     16          8           0       -1.741985    1.657342   -0.748019
     17          1           0       -0.819802    1.333407   -0.948263
     18          1           0       -0.792386   -1.921593    0.123105
 ---------------------------------------------------------------------
                    Distance matrix (angstroms):
                    1          2          3          4          5
     1  Si   0.000000
     2  O    1.567461   0.000000
     3  O    3.402346   4.897203   0.000000
     4  H    3.717010   5.073219   0.955411   0.000000
     5  O    1.573719   2.841755   2.641501   2.983054   0.000000
     6  H    2.635818   4.126584   0.998259   1.531536   1.658004
     7  O    1.654801   2.715772   2.994600   3.287404   2.649891
     8  H    2.179914   3.505544   2.129027   2.491183   2.595460
     9  C    3.017222   3.448477   5.203585   5.892530   3.311289
    10  H    3.883931   4.176033   6.027978   6.768645   4.347163
    11  H    3.309451   3.390624   5.761846   6.352654   3.500900
    12  C    3.474065   4.390266   4.563280   5.352876   3.115828
    13  H    3.422969   4.589852   3.948149   4.824064   3.133615
    14  H    4.548886   5.361892   5.490142   6.315765   4.176480
    15  O    1.913620   2.365292   4.578596   5.171563   2.805229
    16  O    3.513049   4.465737   4.249306   4.912621   2.597131
    17  H    2.720353   3.785432   3.504075   4.077586   1.616253
    18  H    1.919619   1.610358   5.122500   5.572447   3.091403
                    6          7          8          9         10
     6  H    0.000000
     7  O    2.695151   0.000000
     8  H    2.057267   0.963379   0.000000
     9  C    4.412796   4.056278   4.404266   0.000000
    10  H    5.321162   4.691312   5.078584   1.093976   0.000000
    11  H    4.869171   4.646626   5.059008   1.092970   1.782719
    12  C    3.842813   4.360779   4.376437   1.522329   2.157564
    13  H    3.410892   3.888923   3.756207   2.136267   2.596195
    14  H    4.829004   5.398548   5.398241   2.121880   2.312742
    15  O    3.847213   2.779049   3.312656   1.431169   2.035951
    16  O    3.423058   4.630606   4.543551   2.446930   3.335053
    17  H    2.591186   3.874006   3.779402   2.633498   3.661546
    18  H    4.345341   2.982542   3.709015   2.067580   2.612346
                   11         12         13         14         15
    11  H    0.000000
    12  C    2.139915   0.000000
    13  H    3.019931   1.100496   0.000000
    14  H    2.595142   1.095601   1.767534   0.000000
    15  O    2.068961   2.460027   2.561726   3.332479   0.000000
    16  O    2.554277   1.389920   2.074172   2.013584   3.177116
    17  H    2.755267   1.927230   2.312125   2.832145   2.897922
    18  H    2.236812   3.299518   3.550427   4.140660   1.028308
                   16         17         18
    16  O    0.000000
    17  H    0.997724   0.000000
    18  H    3.803863   3.426895   0.000000
 Stoichiometry    C2H9O6Si(1-)
 Framework group  C1[X(C2H9O6Si)]
 Deg. of freedom    48
 Full point group                 C1      NOp   1
 Largest Abelian subgroup         C1      NOp   1
 Largest concise Abelian subgroup C1      NOp   1
                         Standard orientation:                         
 ---------------------------------------------------------------------
 Center     Atomic      Atomic             Coordinates (Angstroms)
 Number     Number       Type             X           Y           Z
 ---------------------------------------------------------------------
      1         14           0        0.718941   -0.801785   -0.260117
      2          8           0        0.453786   -2.229968   -0.849116
      3          8           0        2.335153    2.128822    0.352551
      4          1           0        3.123168    2.031810   -0.178892
      5          8           0        0.622761    0.604603   -0.959698
      6          1           0        1.635366    1.668614   -0.190614
      7          8           0        1.814829   -0.752958    0.978839
      8          1           0        2.120583    0.151024    1.110860
      9          6           0       -2.192801   -0.433853    0.439893
     10          1           0       -2.869937   -0.783736    1.224655
     11          1           0       -2.578717   -0.746465   -0.533722
     12          6           0       -2.105884    1.085776    0.465557
     13          1           0       -1.426911    1.373710    1.282368
     14          1           0       -3.101687    1.462306    0.724290
     15          8           0       -0.929885   -1.064796    0.674838
     16          8           0       -1.741985    1.657342   -0.748019
     17          1           0       -0.819802    1.333407   -0.948263
     18          1           0       -0.792386   -1.921593    0.123105
 ---------------------------------------------------------------------
 Rotational constants (GHZ):           1.4307120           1.1096216           0.7620426
 Standard basis: def2TZVPP (5D, 7F)
 There are   471 symmetry adapted cartesian basis functions of A   symmetry.
 There are   416 symmetry adapted basis functions of A   symmetry.
   416 basis functions,   630 primitive gaussians,   471 cartesian basis functions
    42 alpha electrons       42 beta electrons
       nuclear repulsion energy       626.9048421938 Hartrees.
 NAtoms=   18 NActive=   18 NUniq=   18 SFac= 1.00D+00 NAtFMM=   60 NAOKFM=F Big=F
 Integral buffers will be    131072 words long.
 Raffenetti 2 integral format.
 Two-electron integral symmetry is turned on.
 Nuclear repulsion after empirical dispersion term =      626.8953234755 Hartrees.
 One-electron integrals computed using PRISM.
   1 Symmetry operations used in ECPInt.
 ECPInt:  NShTT=   12246 NPrTT=   33908 LenC2=   11645 LenP2D=   25154.
 LDataN:  DoStor=T MaxTD1= 6 Len=  172
 NBasis=   416 RedAO= T EigKep=  3.15D-04  NBF=   416
 NBsUse=   416 1.00D-06 EigRej= -1.00D+00 NBFU=   416
 ExpMin= 7.01D-02 ExpMax= 4.48D+04 ExpMxC= 1.53D+03 IAcc=3 IRadAn=         5 AccDes= 0.00D+00
 Harris functional with IExCor= 4639 and IRadAn=       5 diagonalized for initial guess.
 HarFok:  IExCor= 4639 AccDes= 0.00D+00 IRadAn=         5 IDoV= 1 UseB2=F ITyADJ=14
 ICtDFT=  3500011 ScaDFX=  1.000000  1.000000  1.000000  1.000000
 FoFCou: FMM=F IPFlag=           0 FMFlag=      100000 FMFlg1=           0
         NFxFlg=           0 DoJE=T BraDBF=F KetDBF=T FulRan=T
         wScrn=  0.000000 ICntrl=       500 IOpCl=  0 I1Cent=   200000004 NGrid=           0
         NMat0=    1 NMatS0=      1 NMatT0=    0 NMatD0=    1 NMtDS0=    0 NMtDT0=    0
 Petite list used in FoFCou.
 Requested convergence on RMS density matrix=1.00D-08 within 128 cycles.
 Requested convergence on MAX density matrix=1.00D-06.
 Requested convergence on             energy=1.00D-06.
 No special actions if energy rises.
 Integral accuracy reduced to 1.0D-05 until final iterations.
 Initial convergence to 1.0D-05 achieved.  Increase integral accuracy.
 SCF Done:  E(RwB97XD) =  -822.758089300     A.U. after   14 cycles
            NFock= 14  Conv=0.55D-08     -V/T= 2.0033
 DoSCS=F DFT=T ScalE2(SS,OS)=  1.000000  1.000000
 Range of M.O.s used for correlation:     1   416
 NBasis=   416 NAE=    42 NBE=    42 NFC=     0 NFV=     0
 NROrb=    416 NOA=    42 NOB=    42 NVA=   374 NVB=   374
   1 Symmetry operations used in ECPInt.
 ECPInt:  NShTT=   12246 NPrTT=   33908 LenC2=   11645 LenP2D=   25154.
 LDataN:  DoStor=T MaxTD1= 7 Len=  274
 Number of processors reduced to  12 by ecpmxn.
 Symmetrizing basis deriv contribution to polar:
 IMax=3 JMax=2 DiffMx= 0.00D+00
 G2DrvN: will do    19 centers at a time, making    1 passes.
 Calling FoFCou, ICntrl=  3107 FMM=F I1Cent=   0 AccDes= 0.00D+00.
 End of G2Drv F.D. properties file   721 does not exist.
 End of G2Drv F.D. properties file   722 does not exist.
 End of G2Drv F.D. properties file   788 does not exist.
          IDoAtm=111111111111111111
          Differentiating once with respect to electric field.
                with respect to dipole field.
          Differentiating once with respect to nuclear coordinates.
 CalDSu exits because no D1Ps are significant.
          There are    57 degrees of freedom in the 1st order CPHF.  IDoFFX=6 NUNeed=     3.
     54 vectors produced by pass  0 Test12= 2.76D-14 1.75D-09 XBig12= 2.85D+01 9.26D-01.
 AX will form    54 AO Fock derivatives at one time.
     54 vectors produced by pass  1 Test12= 2.76D-14 1.75D-09 XBig12= 2.89D+00 2.41D-01.
     54 vectors produced by pass  2 Test12= 2.76D-14 1.75D-09 XBig12= 9.80D-02 5.01D-02.
     54 vectors produced by pass  3 Test12= 2.76D-14 1.75D-09 XBig12= 1.72D-03 8.43D-03.
     54 vectors produced by pass  4 Test12= 2.76D-14 1.75D-09 XBig12= 1.91D-05 6.26D-04.
     54 vectors produced by pass  5 Test12= 2.76D-14 1.75D-09 XBig12= 1.65D-07 4.36D-05.
     54 vectors produced by pass  6 Test12= 2.76D-14 1.75D-09 XBig12= 1.22D-09 3.32D-06.
     23 vectors produced by pass  7 Test12= 2.76D-14 1.75D-09 XBig12= 8.27D-12 2.57D-07.
      3 vectors produced by pass  8 Test12= 2.76D-14 1.75D-09 XBig12= 4.81D-14 1.88D-08.
      1 vectors produced by pass  9 Test12= 2.76D-14 1.75D-09 XBig12= 3.31D-16 1.87D-09.
 InvSVY:  IOpt=1 It=  1 EMax= 1.16D-15
 Solved reduced A of dimension   405 with    57 vectors.
 Isotropic polarizability for W=    0.000000       78.61 Bohr**3.
 End of Minotr F.D. properties file   721 does not exist.
 End of Minotr F.D. properties file   722 does not exist.
 End of Minotr F.D. properties file   788 does not exist.

 **********************************************************************

            Population analysis using the SCF Density.

 **********************************************************************

 Orbital symmetries:
       Occupied  (A) (A) (A) (A) (A) (A) (A) (A) (A) (A) (A) (A)
                 (A) (A) (A) (A) (A) (A) (A) (A) (A) (A) (A) (A)
                 (A) (A) (A) (A) (A) (A) (A) (A) (A) (A) (A) (A)
                 (A) (A) (A) (A) (A) (A)
       Virtual   (A) (A) (A) (A) (A) (A) (A) (A) (A) (A) (A) (A)
                 (A) (A) (A) (A) (A) (A) (A) (A) (A) (A) (A) (A)
                 (A) (A) (A) (A) (A) (A) (A) (A) (A) (A) (A) (A)
                 (A) (A) (A) (A) (A) (A) (A) (A) (A) (A) (A) (A)
                 (A) (A) (A) (A) (A) (A) (A) (A) (A) (A) (A) (A)
                 (A) (A) (A) (A) (A) (A) (A) (A) (A) (A) (A) (A)
                 (A) (A) (A) (A) (A) (A) (A) (A) (A) (A) (A) (A)
                 (A) (A) (A) (A) (A) (A) (A) (A) (A) (A) (A) (A)
                 (A) (A) (A) (A) (A) (A) (A) (A) (A) (A) (A) (A)
                 (A) (A) (A) (A) (A) (A) (A) (A) (A) (A) (A) (A)
                 (A) (A) (A) (A) (A) (A) (A) (A) (A) (A) (A) (A)
                 (A) (A) (A) (A) (A) (A) (A) (A) (A) (A) (A) (A)
                 (A) (A) (A) (A) (A) (A) (A) (A) (A) (A) (A) (A)
                 (A) (A) (A) (A) (A) (A) (A) (A) (A) (A) (A) (A)
                 (A) (A) (A) (A) (A) (A) (A) (A) (A) (A) (A) (A)
                 (A) (A) (A) (A) (A) (A) (A) (A) (A) (A) (A) (A)
                 (A) (A) (A) (A) (A) (A) (A) (A) (A) (A) (A) (A)
                 (A) (A) (A) (A) (A) (A) (A) (A) (A) (A) (A) (A)
                 (A) (A) (A) (A) (A) (A) (A) (A) (A) (A) (A) (A)
                 (A) (A) (A) (A) (A) (A) (A) (A) (A) (A) (A) (A)
                 (A) (A) (A) (A) (A) (A) (A) (A) (A) (A) (A) (A)
                 (A) (A) (A) (A) (A) (A) (A) (A) (A) (A) (A) (A)
                 (A) (A) (A) (A) (A) (A) (A) (A) (A) (A) (A) (A)
                 (A) (A) (A) (A) (A) (A) (A) (A) (A) (A) (A) (A)
                 (A) (A) (A) (A) (A) (A) (A) (A) (A) (A) (A) (A)
                 (A) (A) (A) (A) (A) (A) (A) (A) (A) (A) (A) (A)
                 (A) (A) (A) (A) (A) (A) (A) (A) (A) (A) (A) (A)
                 (A) (A) (A) (A) (A) (A) (A) (A) (A) (A) (A) (A)
                 (A) (A) (A) (A) (A) (A) (A) (A) (A) (A) (A) (A)
                 (A) (A) (A) (A) (A) (A) (A) (A) (A) (A) (A) (A)
                 (A) (A) (A) (A) (A) (A) (A) (A) (A) (A) (A) (A)
                 (A) (A)
 The electronic state is 1-A.
 Alpha  occ. eigenvalues --  -66.10518 -19.15799 -19.08780 -19.08437 -19.07784
 Alpha  occ. eigenvalues --  -19.01852 -19.00044 -10.22262 -10.20459  -5.22505
 Alpha  occ. eigenvalues --   -3.57384  -3.56893  -3.56621  -1.03636  -0.97105
 Alpha  occ. eigenvalues --   -0.95328  -0.93364  -0.84482  -0.81966  -0.72059
 Alpha  occ. eigenvalues --   -0.59741  -0.51173  -0.46803  -0.45585  -0.45370
 Alpha  occ. eigenvalues --   -0.44478  -0.40898  -0.36755  -0.35983  -0.33530
 Alpha  occ. eigenvalues --   -0.32944  -0.30760  -0.28736  -0.27700  -0.25956
 Alpha  occ. eigenvalues --   -0.24768  -0.24218  -0.21535  -0.21011  -0.19906
 Alpha  occ. eigenvalues --   -0.18429  -0.17716
 Alpha virt. eigenvalues --    0.22799   0.24092   0.26134   0.28256   0.28992
 Alpha virt. eigenvalues --    0.29899   0.31039   0.32110   0.32518   0.34161
 Alpha virt. eigenvalues --    0.37102   0.38037   0.39458   0.41818   0.41889
 Alpha virt. eigenvalues --    0.44116   0.45281   0.45345   0.46136   0.48870
 Alpha virt. eigenvalues --    0.50944   0.52264   0.53940   0.55003   0.55326
 Alpha virt. eigenvalues --    0.56691   0.57261   0.58318   0.58664   0.58871
 Alpha virt. eigenvalues --    0.60781   0.61027   0.62954   0.64268   0.64635
 Alpha virt. eigenvalues --    0.65324   0.65916   0.67426   0.67842   0.68296
 Alpha virt. eigenvalues --    0.69469   0.71160   0.72102   0.72431   0.75047
 Alpha virt. eigenvalues --    0.76636   0.78797   0.79513   0.81714   0.82882
 Alpha virt. eigenvalues --    0.83805   0.85513   0.86391   0.87370   0.88751
 Alpha virt. eigenvalues --    0.89466   0.92263   0.92637   0.93529   0.94661
 Alpha virt. eigenvalues --    0.97332   0.98122   0.99136   0.99722   1.01995
 Alpha virt. eigenvalues --    1.04363   1.05015   1.06532   1.07512   1.08071
 Alpha virt. eigenvalues --    1.08689   1.10872   1.12446   1.15331   1.16840
 Alpha virt. eigenvalues --    1.17887   1.19823   1.21165   1.21664   1.23800
 Alpha virt. eigenvalues --    1.25677   1.27072   1.27771   1.28086   1.31363
 Alpha virt. eigenvalues --    1.32688   1.33843   1.34222   1.35749   1.36352
 Alpha virt. eigenvalues --    1.39637   1.40830   1.43165   1.43476   1.44191
 Alpha virt. eigenvalues --    1.45216   1.47521   1.48435   1.51264   1.53808
 Alpha virt. eigenvalues --    1.56616   1.57452   1.58810   1.59440   1.60298
 Alpha virt. eigenvalues --    1.64478   1.65328   1.68304   1.69210   1.70705
 Alpha virt. eigenvalues --    1.73342   1.74043   1.76006   1.77502   1.79815
 Alpha virt. eigenvalues --    1.83835   1.85146   1.88727   1.90057   1.96204
 Alpha virt. eigenvalues --    1.98302   2.00865   2.01398   2.03348   2.05481
 Alpha virt. eigenvalues --    2.08294   2.10333   2.11338   2.12576   2.14161
 Alpha virt. eigenvalues --    2.15459   2.17106   2.17577   2.20417   2.21033
 Alpha virt. eigenvalues --    2.23007   2.23489   2.26455   2.29229   2.30194
 Alpha virt. eigenvalues --    2.33387   2.35650   2.38824   2.39741   2.41251
 Alpha virt. eigenvalues --    2.43213   2.44671   2.46729   2.50430   2.52385
 Alpha virt. eigenvalues --    2.54253   2.56680   2.57497   2.59227   2.60670
 Alpha virt. eigenvalues --    2.62917   2.72373   2.75650   2.79500   2.79877
 Alpha virt. eigenvalues --    2.82215   2.83090   2.87368   2.90953   2.94395
 Alpha virt. eigenvalues --    2.95140   2.96222   2.96633   2.99655   3.01009
 Alpha virt. eigenvalues --    3.03168   3.07048   3.08546   3.11386   3.12810
 Alpha virt. eigenvalues --    3.15975   3.18654   3.20489   3.21106   3.22038
 Alpha virt. eigenvalues --    3.24383   3.25789   3.27839   3.29180   3.31114
 Alpha virt. eigenvalues --    3.32665   3.33653   3.35564   3.37205   3.38934
 Alpha virt. eigenvalues --    3.41189   3.42274   3.42988   3.44796   3.50099
 Alpha virt. eigenvalues --    3.50781   3.52797   3.53576   3.54419   3.55775
 Alpha virt. eigenvalues --    3.58009   3.60118   3.63524   3.64284   3.65694
 Alpha virt. eigenvalues --    3.68644   3.70568   3.70948   3.74643   3.78183
 Alpha virt. eigenvalues --    3.78521   3.79778   3.81003   3.82042   3.84841
 Alpha virt. eigenvalues --    3.86040   3.87151   3.89110   3.89607   3.91491
 Alpha virt. eigenvalues --    3.94613   3.96641   3.97032   3.99074   4.01472
 Alpha virt. eigenvalues --    4.04276   4.07025   4.08489   4.09450   4.12738
 Alpha virt. eigenvalues --    4.13127   4.15986   4.18034   4.21232   4.21552
 Alpha virt. eigenvalues --    4.22340   4.25802   4.28308   4.28572   4.28855
 Alpha virt. eigenvalues --    4.31101   4.32917   4.35979   4.36750   4.38328
 Alpha virt. eigenvalues --    4.40332   4.41474   4.43958   4.45038   4.48320
 Alpha virt. eigenvalues --    4.49321   4.53929   4.54980   4.59163   4.60196
 Alpha virt. eigenvalues --    4.60516   4.64886   4.67769   4.71660   4.76487
 Alpha virt. eigenvalues --    4.78998   4.82420   4.87554   4.88499   4.90215
 Alpha virt. eigenvalues --    4.91110   4.94750   4.97458   4.99325   5.01360
 Alpha virt. eigenvalues --    5.02929   5.05879   5.07835   5.13393   5.14681
 Alpha virt. eigenvalues --    5.17146   5.18285   5.18739   5.21772   5.22325
 Alpha virt. eigenvalues --    5.23712   5.32388   5.36372   5.44595   5.47462
 Alpha virt. eigenvalues --    5.49078   5.50881   5.51147   5.53382   5.53840
 Alpha virt. eigenvalues --    5.53940   5.57888   5.59794   5.61412   5.61906
 Alpha virt. eigenvalues --    5.65558   5.66584   5.68907   5.70057   5.71932
 Alpha virt. eigenvalues --    5.76807   5.77492   5.80985   5.82487   5.82915
 Alpha virt. eigenvalues --    5.87685   5.88148   5.91269   5.93914   5.96851
 Alpha virt. eigenvalues --    6.02465   6.06976   6.12891   6.17461   6.28089
 Alpha virt. eigenvalues --    6.30714   6.36930   6.38384   6.56117   6.59200
 Alpha virt. eigenvalues --    6.64066   6.66213   6.67674   6.70228   6.73243
 Alpha virt. eigenvalues --    6.74837   6.76782   6.79833   6.83010   6.84594
 Alpha virt. eigenvalues --    6.86547   6.87054   6.89070   6.90321   6.92035
 Alpha virt. eigenvalues --    6.92291   6.94757   6.95617   6.98847   6.99707
 Alpha virt. eigenvalues --    7.00728   7.02710   7.08265   7.10184   7.14121
 Alpha virt. eigenvalues --    7.16025   7.18201   7.24329   7.27015   7.28995
 Alpha virt. eigenvalues --    7.32782   7.34910   7.38538   7.50772   7.52744
 Alpha virt. eigenvalues --    7.59281   7.63374   7.65299   7.70575   7.75588
 Alpha virt. eigenvalues --    7.79615   7.79978   7.88164   7.92501   7.94406
 Alpha virt. eigenvalues --   12.72734  23.44190  23.63048  43.95886  44.00714
 Alpha virt. eigenvalues --   44.05378  44.17373  44.26790  44.44335
          Condensed to atoms (all electrons):
               1          2          3          4          5          6
     1  Si  11.560895   0.649256   0.002894   0.004091   0.512056  -0.003830
     2  O    0.649256   8.143693  -0.000051  -0.000003  -0.031432  -0.000028
     3  O    0.002894  -0.000051   7.868537   0.324786  -0.059064   0.328085
     4  H    0.004091  -0.000003   0.324786   0.546542   0.005548  -0.038770
     5  O    0.512056  -0.031432  -0.059064   0.005548   8.228608   0.081203
     6  H   -0.003830  -0.000028   0.328085  -0.038770   0.081203   0.373815
     7  O    0.411500  -0.034743  -0.018063   0.000788  -0.036435   0.001298
     8  H   -0.025478   0.000982   0.046101  -0.003831  -0.001931  -0.009599
     9  C   -0.021995  -0.002344   0.000122  -0.000016  -0.009627   0.000077
    10  H    0.004035  -0.000411   0.000002   0.000000  -0.000062  -0.000034
    11  H    0.003917   0.006786   0.000004   0.000002  -0.000723  -0.000111
    12  C   -0.005890  -0.003329  -0.000360   0.000017   0.030056   0.000444
    13  H    0.003766  -0.000124   0.000627  -0.000011   0.000125  -0.001731
    14  H    0.000370  -0.000021  -0.000006  -0.000001   0.000116   0.000084
    15  O    0.185175  -0.111265  -0.000063   0.000022  -0.017302   0.000682
    16  O    0.005662   0.000072  -0.000259  -0.000017  -0.064115   0.002219
    17  H   -0.009342  -0.000644   0.000414  -0.000025   0.086801   0.000431
    18  H   -0.016131   0.120978   0.000056   0.000007  -0.000277  -0.000065
               7          8          9         10         11         12
     1  Si   0.411500  -0.025478  -0.021995   0.004035   0.003917  -0.005890
     2  O   -0.034743   0.000982  -0.002344  -0.000411   0.006786  -0.003329
     3  O   -0.018063   0.046101   0.000122   0.000002   0.000004  -0.000360
     4  H    0.000788  -0.003831  -0.000016   0.000000   0.000002   0.000017
     5  O   -0.036435  -0.001931  -0.009627  -0.000062  -0.000723   0.030056
     6  H    0.001298  -0.009599   0.000077  -0.000034  -0.000111   0.000444
     7  O    7.840555   0.322204  -0.000219  -0.000125  -0.000094  -0.001348
     8  H    0.322204   0.483621  -0.000106   0.000023  -0.000006   0.000005
     9  C   -0.000219  -0.000106   4.944640   0.355708   0.396831   0.261559
    10  H   -0.000125   0.000023   0.355708   0.682481  -0.039688  -0.012813
    11  H   -0.000094  -0.000006   0.396831  -0.039688   0.623214  -0.035424
    12  C   -0.001348   0.000005   0.261559  -0.012813  -0.035424   4.663319
    13  H    0.000727   0.000360  -0.090231   0.003731   0.013193   0.432650
    14  H   -0.000027   0.000005  -0.023365  -0.002879  -0.005367   0.386332
    15  O   -0.017712   0.001005   0.246966  -0.040176  -0.042365  -0.043506
    16  O   -0.000037  -0.000077  -0.086768   0.007746   0.010823   0.324992
    17  H    0.000302  -0.000054   0.004962   0.000077  -0.000778  -0.042314
    18  H    0.001905  -0.000192  -0.015824  -0.004589  -0.004696   0.004904
              13         14         15         16         17         18
     1  Si   0.003766   0.000370   0.185175   0.005662  -0.009342  -0.016131
     2  O   -0.000124  -0.000021  -0.111265   0.000072  -0.000644   0.120978
     3  O    0.000627  -0.000006  -0.000063  -0.000259   0.000414   0.000056
     4  H   -0.000011  -0.000001   0.000022  -0.000017  -0.000025   0.000007
     5  O    0.000125   0.000116  -0.017302  -0.064115   0.086801  -0.000277
     6  H   -0.001731   0.000084   0.000682   0.002219   0.000431  -0.000065
     7  O    0.000727  -0.000027  -0.017712  -0.000037   0.000302   0.001905
     8  H    0.000360   0.000005   0.001005  -0.000077  -0.000054  -0.000192
     9  C   -0.090231  -0.023365   0.246966  -0.086768   0.004962  -0.015824
    10  H    0.003731  -0.002879  -0.040176   0.007746   0.000077  -0.004589
    11  H    0.013193  -0.005367  -0.042365   0.010823  -0.000778  -0.004696
    12  C    0.432650   0.386332  -0.043506   0.324992  -0.042314   0.004904
    13  H    0.687148  -0.047931   0.001198  -0.050734  -0.003576  -0.001309
    14  H   -0.047931   0.684338   0.004692  -0.041225   0.005990  -0.000426
    15  O    0.001198   0.004692   7.822839   0.003569   0.000454   0.241125
    16  O   -0.050734  -0.041225   0.003569   8.003403   0.338070  -0.000383
    17  H   -0.003576   0.005990   0.000454   0.338070   0.366402  -0.000084
    18  H   -0.001309  -0.000426   0.241125  -0.000383  -0.000084   0.460433
 Mulliken charges:
               1
     1  Si   0.739050
     2  O   -0.737372
     3  O   -0.493761
     4  H    0.160871
     5  O   -0.723543
     6  H    0.265829
     7  O   -0.470476
     8  H    0.186967
     9  C    0.039632
    10  H    0.046973
    11  H    0.074483
    12  C    0.040704
    13  H    0.052123
    14  H    0.039319
    15  O   -0.235338
    16  O   -0.452941
    17  H    0.252913
    18  H    0.214567
 Sum of Mulliken charges =  -1.00000
 Mulliken charges with hydrogens summed into heavy atoms:
               1
     1  Si   0.739050
     2  O   -0.737372
     3  O   -0.067062
     5  O   -0.723543
     7  O   -0.283509
     9  C    0.161088
    12  C    0.132146
    15  O   -0.020771
    16  O   -0.200028
 APT charges:
               1
     1  Si   1.898069
     2  O   -1.083316
     3  O   -0.746769
     4  H    0.222984
     5  O   -1.198895
     6  H    0.514420
     7  O   -0.885009
     8  H    0.326646
     9  C    0.470233
    10  H   -0.082763
    11  H   -0.033489
    12  C    0.466271
    13  H   -0.062743
    14  H   -0.067931
    15  O   -0.953250
    16  O   -0.805181
    17  H    0.522745
    18  H    0.497979
 Sum of APT charges =  -1.00000
 APT charges with hydrogens summed into heavy atoms:
               1
     1  Si   1.898069
     2  O   -1.083316
     3  O   -0.009365
     5  O   -1.198895
     7  O   -0.558363
     9  C    0.353980
    12  C    0.335596
    15  O   -0.455271
    16  O   -0.282436
 Electronic spatial extent (au):  <R**2>=           1604.0222
 Charge=             -1.0000 electrons
 Dipole moment (field-independent basis, Debye):
    X=             -3.3246    Y=              0.9247    Z=              2.6581  Tot=              4.3558
 Quadrupole moment (field-independent basis, Debye-Ang):
   XX=            -65.4847   YY=            -88.7083   ZZ=            -71.3240
   XY=              7.4800   XZ=             -6.5310   YZ=             -2.4274
 Traceless Quadrupole moment (field-independent basis, Debye-Ang):
   XX=              9.6877   YY=            -13.5360   ZZ=              3.8483
   XY=              7.4800   XZ=             -6.5310   YZ=             -2.4274
 Octapole moment (field-independent basis, Debye-Ang**2):
  XXX=             16.9134  YYY=              8.4348  ZZZ=              4.7082  XYY=            -13.1773
  XXY=             -4.9136  XXZ=             -5.7014  XZZ=             -0.4325  YZZ=              6.3645
  YYZ=             11.6356  XYZ=            -11.8491
 Hexadecapole moment (field-independent basis, Debye-Ang**3):
 XXXX=           -960.7850 YYYY=           -893.2000 ZZZZ=           -254.1143 XXXY=             59.8926
 XXXZ=            -42.6467 YYYX=             22.4988 YYYZ=            -50.8641 ZZZX=              5.4380
 ZZZY=             -6.6000 XXYY=           -334.0648 XXZZ=           -223.6006 YYZZ=           -188.2443
 XXYZ=             -2.2859 YYXZ=            -22.6677 ZZXY=             11.7683
 N-N= 6.268953234755D+02 E-N=-3.216512446414D+03  KE= 8.200413545971D+02
  Exact polarizability:      87.726       0.033      79.922      -2.807       1.328      68.177
 Approx polarizability:      84.102       0.066      81.662      -1.828       0.924      76.802
   1 Symmetry operations used in ECPInt.
 ECPInt:  NShTT=   12246 NPrTT=   33908 LenC2=   11645 LenP2D=   25154.
 LDataN:  DoStor=T MaxTD1= 8 Len=  415
 Calling FoFJK, ICntrl=    100127 FMM=F ISym2X=0 I1Cent= 0 IOpClX= 0 NMat=1 NMatS=1 NMatT=0.
 ***** Axes restored to original set *****
 -------------------------------------------------------------------
 Center     Atomic                   Forces (Hartrees/Bohr)
 Number     Number              X              Y              Z
 -------------------------------------------------------------------
      1       14           0.009945656    0.001614658   -0.005612293
      2        8          -0.000001078   -0.000017856   -0.000011864
      3        8          -0.000003390    0.000003536    0.000001597
      4        1          -0.000002608    0.000005735    0.000001628
      5        8           0.000030484   -0.000010930   -0.000018170
      6        1          -0.000008857    0.000006830    0.000008058
      7        8           0.000015241   -0.000006568   -0.000017458
      8        1          -0.000004052    0.000004557    0.000004127
      9        6           0.000024131   -0.000008394    0.000005664
     10        1          -0.000002946   -0.000002918   -0.000002899
     11        1           0.000003583   -0.000004707   -0.000000835
     12        6          -0.000015039   -0.000000442   -0.000003569
     13        1           0.000000447   -0.000001801   -0.000002403
     14        1          -0.000004720   -0.000007757    0.000005678
     15        8          -0.009992704   -0.001525861    0.005685643
     16        8          -0.000016324    0.000011956    0.000007935
     17        1          -0.000000252   -0.000008090   -0.000004619
     18        1           0.000032427   -0.000051950   -0.000046218
 -------------------------------------------------------------------
 Cartesian Forces:  Max     0.009992704 RMS     0.002225859
 FormGI is forming the generalized inverse of G from B-inverse, IUseBI=4.

 GradGradGradGradGradGradGradGradGradGradGradGradGradGradGradGradGradGrad
 Berny optimization.
 Internal  Forces:  Max     0.011567546 RMS     0.001335832
 Search for a saddle point.
 Step number   1 out of a maximum of   85
 All quantities printed in internal units (Hartrees-Bohrs-Radians)
 Swapping is turned off.
 Second derivative matrix not updated -- analytic derivatives used.
 ITU=  0
     Eigenvalues ---   -0.00728   0.00050   0.00250   0.00399   0.00504
     Eigenvalues ---    0.00741   0.01627   0.02296   0.02435   0.03954
     Eigenvalues ---    0.04252   0.04406   0.04911   0.04983   0.05301
     Eigenvalues ---    0.06014   0.06579   0.08513   0.08672   0.10530
     Eigenvalues ---    0.10645   0.11143   0.11593   0.12026   0.12697
     Eigenvalues ---    0.13101   0.16290   0.17621   0.20107   0.23185
     Eigenvalues ---    0.25060   0.26986   0.30230   0.31398   0.31657
     Eigenvalues ---    0.32193   0.32321   0.33432   0.34337   0.34513
     Eigenvalues ---    0.36220   0.42806   0.46656   0.50379   0.50691
     Eigenvalues ---    0.52546   0.56374   1.53366
 Eigenvectors required to have negative eigenvalues:
                          R16       A23       R4        D26       D28
   1                    0.44500  -0.36235  -0.35511   0.28495   0.27634
                          D24       D3        A3        D6        A5
   1                    0.26860   0.18103  -0.17879  -0.17629   0.15363
 RFO step:  Lambda0=1.798308199D-03 Lambda=-2.21498583D-03.
 Linear search not attempted -- option 19 set.
 Maximum step size (   0.300) exceeded in Quadratic search.
    -- Step size scaled by   0.969
 Iteration  1 RMS(Cart)=  0.11796903 RMS(Int)=  0.00766852
 Iteration  2 RMS(Cart)=  0.00978744 RMS(Int)=  0.00163760
 Iteration  3 RMS(Cart)=  0.00021061 RMS(Int)=  0.00163208
 Iteration  4 RMS(Cart)=  0.00000309 RMS(Int)=  0.00163208
 Iteration  5 RMS(Cart)=  0.00000001 RMS(Int)=  0.00163208
 Variable       Old X    -DE/DX   Delta X   Delta X   Delta X     New X
                                 (Linear)    (Quad)   (Total)
    R1        2.96207   0.00002   0.00000   0.03580   0.03580   2.99788
    R2        2.97390  -0.00001   0.00000  -0.01312  -0.01312   2.96077
    R3        3.12712  -0.00000   0.00000  -0.01386  -0.01386   3.11326
    R4        3.61622   0.01157   0.00000   0.03274   0.03274   3.64896
    R5        1.80547   0.00000   0.00000   0.00005   0.00005   1.80551
    R6        1.88644  -0.00000   0.00000  -0.00359  -0.00359   1.88284
    R7        3.13317   0.00000   0.00000   0.02295   0.02295   3.15613
    R8        1.82052   0.00000   0.00000   0.00141   0.00141   1.82193
    R9        2.06731   0.00000   0.00000   0.00250   0.00250   2.06981
   R10        2.06541  -0.00000   0.00000   0.00391   0.00391   2.06933
   R11        2.87678   0.00001   0.00000   0.00376   0.00376   2.88055
   R12        2.70452   0.00001   0.00000  -0.02212  -0.02212   2.68240
   R13        2.07964  -0.00000   0.00000   0.00037   0.00037   2.08000
   R14        2.07039   0.00000   0.00000  -0.00013  -0.00013   2.07025
   R15        2.62657  -0.00000   0.00000   0.00749   0.00749   2.63406
   R16        1.94322   0.00007   0.00000   0.16379   0.16379   2.10701
   R17        1.88542   0.00001   0.00000  -0.01328  -0.01328   1.87215
    A1        2.26124  -0.00000   0.00000  -0.01160  -0.01074   2.25051
    A2        2.00452  -0.00000   0.00000  -0.01291  -0.01171   1.99281
    A3        1.48329  -0.00001   0.00000  -0.09245  -0.09185   1.39144
    A4        1.92510  -0.00001   0.00000   0.02174   0.01942   1.94451
    A5        1.86227   0.00004   0.00000   0.05210   0.05051   1.91278
    A6        1.78121   0.00000   0.00000   0.04952   0.04770   1.82891
    A7        1.80155  -0.00000   0.00000   0.00022   0.00022   1.80178
    A8        1.90707  -0.00000   0.00000  -0.01457  -0.01457   1.89251
    A9        1.91821   0.00000   0.00000  -0.00121  -0.00121   1.91701
   A10        1.90602   0.00001   0.00000  -0.01268  -0.01279   1.89323
   A11        1.92038  -0.00002   0.00000  -0.01244  -0.01251   1.90787
   A12        1.86235  -0.00002   0.00000   0.00364   0.00372   1.86607
   A13        1.89725  -0.00001   0.00000  -0.00432  -0.00450   1.89276
   A14        1.90892  -0.00001   0.00000   0.00802   0.00799   1.91691
   A15        1.96809   0.00006   0.00000   0.01708   0.01704   1.98513
   A16        1.88485  -0.00000   0.00000  -0.00188  -0.00188   1.88297
   A17        1.87041  -0.00000   0.00000   0.00665   0.00666   1.87707
   A18        1.99404   0.00001   0.00000   0.00777   0.00777   2.00181
   A19        1.87085   0.00000   0.00000  -0.00027  -0.00029   1.87056
   A20        1.95944   0.00000   0.00000  -0.00292  -0.00292   1.95651
   A21        1.87846  -0.00000   0.00000  -0.00933  -0.00936   1.86910
   A22        2.23894   0.00010   0.00000  -0.05539  -0.05209   2.18685
   A23        1.30483  -0.00004   0.00000  -0.19254  -0.19638   1.10845
   A24        1.97931   0.00001   0.00000   0.03156   0.02138   2.00068
   A25        1.85846   0.00000   0.00000   0.01569   0.01569   1.87415
   A26        2.93217  -0.00000   0.00000  -0.01638  -0.01638   2.91579
   A27        3.20330   0.00000   0.00000   0.01552   0.01552   3.21882
    D1       -2.68176   0.00001   0.00000  -0.00173  -0.00174  -2.68349
    D2       -0.02064  -0.00003   0.00000  -0.01016  -0.01067  -0.03132
    D3        1.90078  -0.00001   0.00000   0.08337   0.08389   1.98467
    D4        2.84955  -0.00000   0.00000   0.00046   0.00055   2.85009
    D5        0.11152   0.00003   0.00000   0.00890   0.00936   0.12088
    D6       -1.86241  -0.00001   0.00000  -0.08315  -0.08370  -1.94611
    D7       -1.88929   0.00001   0.00000   0.08340   0.08040  -1.80890
    D8       -0.00383  -0.00000   0.00000  -0.01747  -0.01480  -0.01863
    D9        0.37751   0.00001   0.00000   0.04893   0.04493   0.42244
   D10        2.26297  -0.00001   0.00000  -0.05195  -0.05027   2.21270
   D11        2.39774   0.00002   0.00000   0.11458   0.11307   2.51081
   D12       -1.99998   0.00000   0.00000   0.01371   0.01787  -1.98211
   D13        1.62903  -0.00000   0.00000   0.02473   0.02473   1.65376
   D14        1.37633   0.00001   0.00000   0.01976   0.01969   1.39603
   D15       -0.63408   0.00001   0.00000   0.01766   0.01760  -0.61648
   D16       -2.71328   0.00001   0.00000   0.02007   0.01999  -2.69329
   D17       -2.82039  -0.00000   0.00000  -0.00576  -0.00571  -2.82610
   D18        1.45238  -0.00000   0.00000  -0.00786  -0.00781   1.44457
   D19       -0.62682   0.00000   0.00000  -0.00545  -0.00542  -0.63223
   D20       -0.70055   0.00001   0.00000   0.01255   0.01257  -0.68798
   D21       -2.71097   0.00001   0.00000   0.01045   0.01048  -2.70049
   D22        1.49302   0.00001   0.00000   0.01286   0.01287   1.50589
   D23       -3.06570  -0.00000   0.00000  -0.07951  -0.07992   3.13757
   D24        1.66992  -0.00000   0.00000   0.17680   0.17713   1.84705
   D25        1.15783   0.00001   0.00000  -0.07076  -0.07106   1.08677
   D26       -0.38974   0.00001   0.00000   0.18556   0.18599  -0.20374
   D27       -0.95538  -0.00001   0.00000  -0.08223  -0.08263  -1.03800
   D28       -2.50294  -0.00001   0.00000   0.17408   0.17443  -2.32851
   D29       -1.10684   0.00000   0.00000   0.05765   0.05763  -1.04921
   D30        1.04700   0.00001   0.00000   0.05886   0.05884   1.10584
   D31        3.10169   0.00001   0.00000   0.05098   0.05102  -3.13048
         Item               Value     Threshold  Converged?
 Maximum Force            0.011568     0.000450     NO 
 RMS     Force            0.001336     0.000300     NO 
 Maximum Displacement     0.338090     0.001800     NO 
 RMS     Displacement     0.120149     0.001200     NO 
 Predicted change in Energy=-1.142613D-04
 GradGradGradGradGradGradGradGradGradGradGradGradGradGradGradGradGradGrad

                          Input orientation:                          
 ---------------------------------------------------------------------
 Center     Atomic      Atomic             Coordinates (Angstroms)
 Number     Number       Type             X           Y           Z
 ---------------------------------------------------------------------
      1         14           0        0.696662   -0.733178   -0.189349
      2          8           0        0.323688   -2.171238   -0.745732
      3          8           0        2.508131    2.080940    0.289109
      4          1           0        3.251608    1.942280   -0.294735
      5          8           0        0.633236    0.651941   -0.918872
      6          1           0        1.747556    1.673933   -0.209487
      7          8           0        1.853250   -0.742649    0.983835
      8          1           0        2.217997    0.143379    1.090822
      9          6           0       -2.212056   -0.460904    0.423982
     10          1           0       -2.942105   -0.847286    1.143299
     11          1           0       -2.517065   -0.771539   -0.580802
     12          6           0       -2.208979    1.062463    0.477750
     13          1           0       -1.605821    1.368866    1.345986
     14          1           0       -3.237610    1.388370    0.667203
     15          8           0       -0.960938   -1.046752    0.750115
     16          8           0       -1.791543    1.685805   -0.697030
     17          1           0       -0.864892    1.385780   -0.878096
     18          1           0       -0.626528   -1.847951    0.050518
 ---------------------------------------------------------------------
                    Distance matrix (angstroms):
                    1          2          3          4          5
     1  Si   0.000000
     2  O    1.586407   0.000000
     3  O    3.380770   4.891187   0.000000
     4  H    3.700937   5.069235   0.955436   0.000000
     5  O    1.566774   2.845371   2.648865   2.985028   0.000000
     6  H    2.626589   4.135251   0.996357   1.530180   1.670150
     7  O    1.647467   2.715111   2.980633   3.286182   2.655863
     8  H    2.172936   3.509813   2.116853   2.494827   2.609400
     9  C    2.985121   3.274671   5.362773   6.011945   3.337270
    10  H    3.876802   3.998336   6.245737   6.943465   4.391275
    11  H    3.237707   3.171157   5.843456   6.381554   3.473468
    12  C    3.480244   4.285807   4.829494   5.584696   3.193317
    13  H    3.475236   4.542095   4.306813   5.159010   3.264497
    14  H    4.551169   5.229726   5.799668   6.583471   4.247518
    15  O    1.930947   2.269865   4.693551   5.269873   2.865740
    16  O    3.507189   4.399245   4.428972   5.065668   2.645305
    17  H    2.720810   3.752682   3.636330   4.194708   1.668703
    18  H    1.746735   1.281186   5.031819   5.433690   2.962462
                    6          7          8          9         10
     6  H    0.000000
     7  O    2.697231   0.000000
     8  H    2.062695   0.964123   0.000000
     9  C    4.542834   4.113336   4.520531   0.000000
    10  H    5.493587   4.799147   5.254600   1.095299   0.000000
    11  H    4.930030   4.642045   5.104136   1.095041   1.777336
    12  C    4.062064   4.473954   4.562750   1.524319   2.151179
    13  H    3.709137   4.068762   4.023494   2.136743   2.595779
    14  H    5.069715   5.527961   5.611871   2.128551   2.304809
    15  O    3.957133   2.840204   3.411468   1.419464   2.029632
    16  O    3.572542   4.691184   4.653160   2.458019   3.335739
    17  H    2.712002   3.922409   3.863211   2.630685   3.658885
    18  H    4.255296   2.870901   3.624769   2.139457   2.749073
                   11         12         13         14         15
    11  H    0.000000
    12  C    2.139863   0.000000
    13  H    3.020631   1.100689   0.000000
    14  H    2.596519   1.095531   1.767445   0.000000
    15  O    2.066063   2.465883   2.570243   3.334656   0.000000
    16  O    2.564845   1.393885   2.075779   2.010152   3.201718
    17  H    2.733511   1.936343   2.344313   2.831563   2.928738
    18  H    2.265250   3.340239   3.603494   4.203787   1.114983
                   16         17         18
    16  O    0.000000
    17  H    0.990697   0.000000
    18  H    3.795197   3.372856   0.000000
 Stoichiometry    C2H9O6Si(1-)
 Framework group  C1[X(C2H9O6Si)]
 Deg. of freedom    48
 Full point group                 C1      NOp   1
 Largest Abelian subgroup         C1      NOp   1
 Largest concise Abelian subgroup C1      NOp   1
                         Standard orientation:                         
 ---------------------------------------------------------------------
 Center     Atomic      Atomic             Coordinates (Angstroms)
 Number     Number       Type             X           Y           Z
 ---------------------------------------------------------------------
      1         14           0        0.666106   -0.777134   -0.250133
      2          8           0        0.218330   -2.168202   -0.867477
      3          8           0        2.623706    1.913527    0.347990
      4          1           0        3.359981    1.760561   -0.241382
      5          8           0        0.677993    0.639309   -0.919706
      6          1           0        1.843607    1.569271   -0.167433
      7          8           0        1.818082   -0.898301    0.921370
      8          1           0        2.229221   -0.038331    1.066109
      9          6           0       -2.225292   -0.376850    0.374793
     10          1           0       -2.976375   -0.754205    1.077045
     11          1           0       -2.544279   -0.627577   -0.642310
     12          6           0       -2.141292    1.140502    0.493698
     13          1           0       -1.524516    1.376969    1.374145
     14          1           0       -3.151525    1.512314    0.697102
     15          8           0       -1.007801   -1.041879    0.675341
     16          8           0       -1.688814    1.790374   -0.653405
     17          1           0       -0.779058    1.449453   -0.847305
     18          1           0       -0.715015   -1.829112   -0.057958
 ---------------------------------------------------------------------
 Rotational constants (GHZ):           1.4890573           1.0613794           0.7424397
 Standard basis: def2TZVPP (5D, 7F)
 There are   471 symmetry adapted cartesian basis functions of A   symmetry.
 There are   416 symmetry adapted basis functions of A   symmetry.
   416 basis functions,   630 primitive gaussians,   471 cartesian basis functions
    42 alpha electrons       42 beta electrons
       nuclear repulsion energy       625.7755593197 Hartrees.
 NAtoms=   18 NActive=   18 NUniq=   18 SFac= 1.00D+00 NAtFMM=   60 NAOKFM=F Big=F
 Integral buffers will be    131072 words long.
 Raffenetti 2 integral format.
 Two-electron integral symmetry is turned on.
 Nuclear repulsion after empirical dispersion term =      625.7661911334 Hartrees.
 One-electron integrals computed using PRISM.
   1 Symmetry operations used in ECPInt.
 ECPInt:  NShTT=   12246 NPrTT=   33908 LenC2=   11613 LenP2D=   25058.
 LDataN:  DoStor=T MaxTD1= 6 Len=  172
 NBasis=   416 RedAO= T EigKep=  3.12D-04  NBF=   416
 NBsUse=   416 1.00D-06 EigRej= -1.00D+00 NBFU=   416
 Initial guess from the checkpoint file:  "TSOpt_OfPointBeforeWeirdDropoff.chk"
 B after Tr=     0.000000   -0.000000   -0.000000
         Rot=    0.999372   -0.016433   -0.003947    0.031142 Ang=  -4.06 deg.
 ExpMin= 7.01D-02 ExpMax= 4.48D+04 ExpMxC= 1.53D+03 IAcc=3 IRadAn=         5 AccDes= 0.00D+00
 Harris functional with IExCor= 4639 and IRadAn=       5 diagonalized for initial guess.
 HarFok:  IExCor= 4639 AccDes= 0.00D+00 IRadAn=         5 IDoV= 1 UseB2=F ITyADJ=14
 ICtDFT=  3500011 ScaDFX=  1.000000  1.000000  1.000000  1.000000
 FoFCou: FMM=F IPFlag=           0 FMFlag=      100000 FMFlg1=           0
         NFxFlg=           0 DoJE=T BraDBF=F KetDBF=T FulRan=T
         wScrn=  0.000000 ICntrl=       500 IOpCl=  0 I1Cent=   200000004 NGrid=           0
         NMat0=    1 NMatS0=      1 NMatT0=    0 NMatD0=    1 NMtDS0=    0 NMtDT0=    0
 Petite list used in FoFCou.
 Requested convergence on RMS density matrix=1.00D-08 within 128 cycles.
 Requested convergence on MAX density matrix=1.00D-06.
 Requested convergence on             energy=1.00D-06.
 No special actions if energy rises.
 Integral accuracy reduced to 1.0D-05 until final iterations.
 Initial convergence to 1.0D-05 achieved.  Increase integral accuracy.
 SCF Done:  E(RwB97XD) =  -822.758059804     A.U. after   13 cycles
            NFock= 13  Conv=0.79D-08     -V/T= 2.0033
 DoSCS=F DFT=T ScalE2(SS,OS)=  1.000000  1.000000
 Range of M.O.s used for correlation:     1   416
 NBasis=   416 NAE=    42 NBE=    42 NFC=     0 NFV=     0
 NROrb=    416 NOA=    42 NOB=    42 NVA=   374 NVB=   374

 **** Warning!!: The largest alpha MO coefficient is  0.11623042D+02

   1 Symmetry operations used in ECPInt.
 ECPInt:  NShTT=   12246 NPrTT=   33908 LenC2=   11613 LenP2D=   25058.
 LDataN:  DoStor=T MaxTD1= 7 Len=  274
 Number of processors reduced to  12 by ecpmxn.
 Symmetrizing basis deriv contribution to polar:
 IMax=3 JMax=2 DiffMx= 0.00D+00
 G2DrvN: will do    19 centers at a time, making    1 passes.
 Calling FoFCou, ICntrl=  3107 FMM=F I1Cent=   0 AccDes= 0.00D+00.
 End of G2Drv F.D. properties file   721 does not exist.
 End of G2Drv F.D. properties file   722 does not exist.
 End of G2Drv F.D. properties file   788 does not exist.
          IDoAtm=111111111111111111
          Differentiating once with respect to electric field.
                with respect to dipole field.
          Differentiating once with respect to nuclear coordinates.
 CalDSu exits because no D1Ps are significant.
          There are    57 degrees of freedom in the 1st order CPHF.  IDoFFX=6 NUNeed=     3.
     54 vectors produced by pass  0 Test12= 2.76D-14 1.75D-09 XBig12= 2.85D+01 8.81D-01.
 AX will form    54 AO Fock derivatives at one time.
     54 vectors produced by pass  1 Test12= 2.76D-14 1.75D-09 XBig12= 3.04D+00 2.99D-01.
     54 vectors produced by pass  2 Test12= 2.76D-14 1.75D-09 XBig12= 1.03D-01 6.38D-02.
     54 vectors produced by pass  3 Test12= 2.76D-14 1.75D-09 XBig12= 1.72D-03 8.01D-03.
     54 vectors produced by pass  4 Test12= 2.76D-14 1.75D-09 XBig12= 1.84D-05 7.11D-04.
     54 vectors produced by pass  5 Test12= 2.76D-14 1.75D-09 XBig12= 1.47D-07 4.30D-05.
     54 vectors produced by pass  6 Test12= 2.76D-14 1.75D-09 XBig12= 1.01D-09 3.37D-06.
     22 vectors produced by pass  7 Test12= 2.76D-14 1.75D-09 XBig12= 6.72D-12 2.19D-07.
      3 vectors produced by pass  8 Test12= 2.76D-14 1.75D-09 XBig12= 3.92D-14 1.69D-08.
      1 vectors produced by pass  9 Test12= 2.76D-14 1.75D-09 XBig12= 1.60D-16 1.77D-09.
 InvSVY:  IOpt=1 It=  1 EMax= 1.78D-15
 Solved reduced A of dimension   404 with    57 vectors.
 Isotropic polarizability for W=    0.000000       78.30 Bohr**3.
 End of Minotr F.D. properties file   721 does not exist.
 End of Minotr F.D. properties file   722 does not exist.
 End of Minotr F.D. properties file   788 does not exist.
   1 Symmetry operations used in ECPInt.
 ECPInt:  NShTT=   12246 NPrTT=   33908 LenC2=   11613 LenP2D=   25058.
 LDataN:  DoStor=T MaxTD1= 8 Len=  415
 Calling FoFJK, ICntrl=    100127 FMM=F ISym2X=0 I1Cent= 0 IOpClX= 0 NMat=1 NMatS=1 NMatT=0.
 ***** Axes restored to original set *****
 -------------------------------------------------------------------
 Center     Atomic                   Forces (Hartrees/Bohr)
 Number     Number              X              Y              Z
 -------------------------------------------------------------------
      1       14           0.002386109    0.007598354    0.002114533
      2        8           0.004550194   -0.000439858   -0.003507644
      3        8          -0.000005944    0.000013787    0.000082330
      4        1           0.000011273    0.000025325    0.000003200
      5        8          -0.000082028   -0.000289449   -0.000595770
      6        1          -0.000021130   -0.000002083   -0.000050672
      7        8           0.000232370   -0.000857412   -0.000135606
      8        1          -0.000011210    0.000047753   -0.000054276
      9        6           0.002274141    0.000409572    0.001047505
     10        1          -0.000102832   -0.000019484    0.000135434
     11        1          -0.000291959   -0.000074457   -0.000453538
     12        6          -0.000773268   -0.000067759    0.000448206
     13        1           0.000005384   -0.000134699   -0.000106066
     14        1          -0.000106691    0.000242186   -0.000087798
     15        8          -0.005154079    0.022021548    0.014282585
     16        8           0.000932313    0.000104354   -0.000589378
     17        1          -0.000437097   -0.000234633    0.000231693
     18        1          -0.003405546   -0.028343045   -0.012764739
 -------------------------------------------------------------------
 Cartesian Forces:  Max     0.028343045 RMS     0.005781420
 FormGI is forming the generalized inverse of G from B-inverse, IUseBI=4.

 GradGradGradGradGradGradGradGradGradGradGradGradGradGradGradGradGradGrad
 Berny optimization.
 Internal  Forces:  Max     0.027352048 RMS     0.004316261
 Search for a saddle point.
 Step number   2 out of a maximum of   85
 All quantities printed in internal units (Hartrees-Bohrs-Radians)
 Swapping is turned off.
 Second derivative matrix not updated -- analytic derivatives used.
 ITU=  0  0
     Eigenvalues ---   -0.07392   0.00150   0.00289   0.00339   0.00541
     Eigenvalues ---    0.00925   0.01579   0.02312   0.02446   0.04131
     Eigenvalues ---    0.04399   0.04560   0.04924   0.05053   0.05310
     Eigenvalues ---    0.06020   0.06479   0.08334   0.08903   0.09990
     Eigenvalues ---    0.10615   0.10784   0.11944   0.12229   0.13080
     Eigenvalues ---    0.13387   0.16086   0.18632   0.21526   0.24155
     Eigenvalues ---    0.25407   0.26919   0.30161   0.31315   0.31833
     Eigenvalues ---    0.32372   0.33010   0.33220   0.34946   0.37735
     Eigenvalues ---    0.41874   0.43449   0.47780   0.49251   0.52358
     Eigenvalues ---    0.56368   0.60416   1.24930
 Eigenvectors required to have negative eigenvalues:
                          R16       R4        R1        A5        D5
   1                   -0.81821   0.45560  -0.13675  -0.12620  -0.10374
                          D2        D6        D12       D9        A24
   1                    0.09875   0.09132  -0.08436   0.08244  -0.07536
 RFO step:  Lambda0=3.337447071D-03 Lambda=-3.05763412D-03.
 Linear search not attempted -- option 19 set.
 Iteration  1 RMS(Cart)=  0.05376470 RMS(Int)=  0.00140551
 Iteration  2 RMS(Cart)=  0.00253011 RMS(Int)=  0.00024756
 Iteration  3 RMS(Cart)=  0.00000471 RMS(Int)=  0.00024753
 Iteration  4 RMS(Cart)=  0.00000000 RMS(Int)=  0.00024753
 Variable       Old X    -DE/DX   Delta X   Delta X   Delta X     New X
                                 (Linear)    (Quad)   (Total)
    R1        2.99788   0.00056   0.00000  -0.03085  -0.03085   2.96703
    R2        2.96077   0.00004   0.00000   0.00087   0.00087   2.96164
    R3        3.11326   0.00003   0.00000   0.00092   0.00092   3.11418
    R4        3.64896   0.00809   0.00000   0.15239   0.15239   3.80135
    R5        1.80551   0.00001   0.00000  -0.00009  -0.00009   1.80542
    R6        1.88284   0.00006   0.00000   0.00007   0.00007   1.88292
    R7        3.15613   0.00002   0.00000   0.00046   0.00046   3.15659
    R8        1.82193   0.00003   0.00000   0.00027   0.00027   1.82219
    R9        2.06981   0.00016   0.00000   0.00047   0.00047   2.07028
   R10        2.06933   0.00052   0.00000  -0.00106  -0.00106   2.06827
   R11        2.88055  -0.00009   0.00000  -0.00204  -0.00204   2.87851
   R12        2.68240  -0.00137   0.00000   0.00586   0.00586   2.68826
   R13        2.08000  -0.00012   0.00000  -0.00026  -0.00026   2.07974
   R14        2.07025   0.00016   0.00000   0.00012   0.00012   2.07038
   R15        2.63406   0.00039   0.00000  -0.00135  -0.00135   2.63271
   R16        2.10701   0.02735   0.00000  -0.11198  -0.11198   1.99503
   R17        1.87215  -0.00038   0.00000   0.00229   0.00229   1.87444
    A1        2.25051  -0.00199   0.00000   0.01636   0.01607   2.26658
    A2        1.99281  -0.00141   0.00000   0.01327   0.01298   2.00579
    A3        1.39144   0.00745   0.00000   0.01371   0.01415   1.40559
    A4        1.94451   0.00156   0.00000  -0.00161  -0.00311   1.94140
    A5        1.91278  -0.00274   0.00000  -0.03887  -0.03922   1.87356
    A6        1.82891  -0.00131   0.00000  -0.03148  -0.03202   1.79690
    A7        1.80178   0.00004   0.00000   0.00155   0.00155   1.80333
    A8        1.89251   0.00001   0.00000   0.00136   0.00136   1.89387
    A9        1.91701  -0.00011   0.00000   0.00047   0.00047   1.91748
   A10        1.89323  -0.00006   0.00000   0.00332   0.00332   1.89655
   A11        1.90787   0.00023   0.00000   0.00222   0.00222   1.91008
   A12        1.86607   0.00026   0.00000   0.00284   0.00285   1.86891
   A13        1.89276  -0.00012   0.00000   0.00218   0.00216   1.89492
   A14        1.91691   0.00009   0.00000  -0.00072  -0.00073   1.91618
   A15        1.98513  -0.00038   0.00000  -0.00931  -0.00932   1.97581
   A16        1.88297   0.00001   0.00000  -0.00018  -0.00018   1.88279
   A17        1.87707   0.00061   0.00000  -0.00072  -0.00071   1.87635
   A18        2.00181  -0.00098   0.00000  -0.00180  -0.00180   2.00001
   A19        1.87056  -0.00006   0.00000   0.00050   0.00050   1.87106
   A20        1.95651   0.00022   0.00000   0.00038   0.00038   1.95689
   A21        1.86910   0.00028   0.00000   0.00192   0.00192   1.87103
   A22        2.18685  -0.00670   0.00000  -0.00161  -0.00140   2.18545
   A23        1.10845   0.01351   0.00000   0.04511   0.04533   1.15378
   A24        2.00068  -0.00792   0.00000  -0.03315  -0.03341   1.96727
   A25        1.87415  -0.00062   0.00000   0.00088   0.00088   1.87503
   A26        2.91579  -0.00002   0.00000   0.00108   0.00108   2.91687
   A27        3.21882  -0.00015   0.00000  -0.00639  -0.00639   3.21243
    D1       -2.68349   0.00379   0.00000  -0.06994  -0.07026  -2.75375
    D2       -0.03132  -0.00084   0.00000   0.00015   0.00017  -0.03115
    D3        1.98467  -0.00318   0.00000  -0.06273  -0.06242   1.92225
    D4        2.85009  -0.00391   0.00000   0.05206   0.05220   2.90229
    D5        0.12088   0.00033   0.00000  -0.00869  -0.00865   0.11224
    D6       -1.94611   0.00355   0.00000   0.05694   0.05674  -1.88937
    D7       -1.80890  -0.00005   0.00000   0.02426   0.02410  -1.78480
    D8       -0.01863   0.00051   0.00000   0.01028   0.01038  -0.00826
    D9        0.42244   0.00002   0.00000   0.04407   0.04347   0.46591
   D10        2.21270   0.00058   0.00000   0.03008   0.02974   2.24244
   D11        2.51081  -0.00026   0.00000   0.00486   0.00524   2.51605
   D12       -1.98211   0.00030   0.00000  -0.00912  -0.00849  -1.99060
   D13        1.65376   0.00003   0.00000   0.01126   0.01126   1.66502
   D14        1.39603   0.00017   0.00000  -0.00577  -0.00577   1.39026
   D15       -0.61648  -0.00007   0.00000  -0.00590  -0.00590  -0.62239
   D16       -2.69329  -0.00026   0.00000  -0.00671  -0.00672  -2.70001
   D17       -2.82610   0.00016   0.00000   0.00073   0.00074  -2.82537
   D18        1.44457  -0.00008   0.00000   0.00060   0.00060   1.44517
   D19       -0.63223  -0.00026   0.00000  -0.00021  -0.00021  -0.63245
   D20       -0.68798  -0.00007   0.00000  -0.00488  -0.00488  -0.69286
   D21       -2.70049  -0.00031   0.00000  -0.00502  -0.00502  -2.70551
   D22        1.50589  -0.00049   0.00000  -0.00583  -0.00583   1.50006
   D23        3.13757   0.00529   0.00000   0.00130   0.00118   3.13875
   D24        1.84705  -0.00505   0.00000  -0.03484  -0.03472   1.81233
   D25        1.08677   0.00516   0.00000  -0.00387  -0.00399   1.08278
   D26       -0.20374  -0.00518   0.00000  -0.04002  -0.03989  -0.24363
   D27       -1.03800   0.00552   0.00000   0.00032   0.00019  -1.03781
   D28       -2.32851  -0.00482   0.00000  -0.03583  -0.03571  -2.36423
   D29       -1.04921   0.00045   0.00000  -0.02065  -0.02065  -1.06986
   D30        1.10584  -0.00014   0.00000  -0.02200  -0.02200   1.08384
   D31       -3.13048   0.00007   0.00000  -0.01999  -0.01999   3.13272
         Item               Value     Threshold  Converged?
 Maximum Force            0.027352     0.000450     NO 
 RMS     Force            0.004316     0.000300     NO 
 Maximum Displacement     0.169647     0.001800     NO 
 RMS     Displacement     0.053597     0.001200     NO 
 Predicted change in Energy= 1.748965D-04
 GradGradGradGradGradGradGradGradGradGradGradGradGradGradGradGradGradGrad

                          Input orientation:                          
 ---------------------------------------------------------------------
 Center     Atomic      Atomic             Coordinates (Angstroms)
 Number     Number       Type             X           Y           Z
 ---------------------------------------------------------------------
      1         14           0        0.743329   -0.760406   -0.252100
      2          8           0        0.350882   -2.177706   -0.802012
      3          8           0        2.458935    2.094930    0.342341
      4          1           0        3.215837    2.010189   -0.234446
      5          8           0        0.648772    0.645136   -0.938931
      6          1           0        1.722068    1.678040   -0.183050
      7          8           0        1.884834   -0.768328    0.936453
      8          1           0        2.225745    0.123831    1.069257
      9          6           0       -2.221910   -0.455872    0.444509
     10          1           0       -2.945533   -0.814685    1.184675
     11          1           0       -2.544070   -0.784902   -0.548387
     12          6           0       -2.189428    1.066898    0.464096
     13          1           0       -1.569939    1.380631    1.317920
     14          1           0       -3.209632    1.415845    0.658393
     15          8           0       -0.968437   -1.047442    0.764738
     16          8           0       -1.773661    1.653335   -0.729282
     17          1           0       -0.846899    1.346121   -0.904251
     18          1           0       -0.716301   -1.843354    0.118591
 ---------------------------------------------------------------------
                    Distance matrix (angstroms):
                    1          2          3          4          5
     1  Si   0.000000
     2  O    1.570082   0.000000
     3  O    3.383727   4.899883   0.000000
     4  H    3.713463   5.105739   0.955388   0.000000
     5  O    1.567234   2.841817   2.649576   2.991571   0.000000
     6  H    2.628444   4.138846   0.996397   1.531115   1.670393
     7  O    1.647955   2.713230   2.980069   3.295866   2.653826
     8  H    2.173802   3.509107   2.113769   2.497654   2.606036
     9  C    3.061151   3.337333   5.331729   6.009287   3.371489
    10  H    3.959163   4.083026   6.195455   6.925049   4.422648
    11  H    3.300815   3.222573   5.840967   6.409963   3.520195
    12  C    3.528887   4.310877   4.762243   5.531244   3.194018
    13  H    3.521393   4.565680   4.206400   5.070487   3.249155
    14  H    4.603364   5.265325   5.717840   6.514374   4.246495
    15  O    2.011589   2.339402   4.669025   5.277843   2.895284
    16  O    3.519813   4.381307   4.388423   5.026659   2.632224
    17  H    2.718746   3.723236   3.611544   4.170786   1.652155
    18  H    1.854915   1.448509   5.063820   5.516896   3.028920
                    6          7          8          9         10
     6  H    0.000000
     7  O    2.695273   0.000000
     8  H    2.058526   0.964264   0.000000
     9  C    4.527954   4.147889   4.528576   0.000000
    10  H    5.465423   4.836963   5.257019   1.095547   0.000000
    11  H    4.939584   4.671211   5.117979   1.094482   1.779203
    12  C    4.011495   4.493416   4.555145   1.523242   2.152042
    13  H    3.630244   4.086441   4.006070   2.135569   2.594114
    14  H    5.009834   5.549911   5.601913   2.127125   2.306943
    15  O    3.945297   2.872028   3.415759   1.422567   2.034560
    16  O    3.538234   4.692942   4.644284   2.455089   3.335811
    17  H    2.688846   3.914263   3.850957   2.637610   3.665646
    18  H    4.293815   2.930953   3.664590   2.073208   2.676597
                   11         12         13         14         15
    11  H    0.000000
    12  C    2.140107   0.000000
    13  H    3.020194   1.100550   0.000000
    14  H    2.596647   1.095596   1.767713   0.000000
    15  O    2.067811   2.460008   2.561904   3.331973   0.000000
    16  O    2.563445   1.393170   2.075308   2.010983   3.189776
    17  H    2.747414   1.937195   2.337097   2.833588   2.920520
    18  H    2.214931   3.280098   3.544174   4.138896   1.055725
                   16         17         18
    16  O    0.000000
    17  H    0.991908   0.000000
    18  H    3.750164   3.352016   0.000000
 Stoichiometry    C2H9O6Si(1-)
 Framework group  C1[X(C2H9O6Si)]
 Deg. of freedom    48
 Full point group                 C1      NOp   1
 Largest Abelian subgroup         C1      NOp   1
 Largest concise Abelian subgroup C1      NOp   1
                         Standard orientation:                         
 ---------------------------------------------------------------------
 Center     Atomic      Atomic             Coordinates (Angstroms)
 Number     Number       Type             X           Y           Z
 ---------------------------------------------------------------------
      1         14           0        0.713405   -0.791297   -0.278197
      2          8           0        0.269223   -2.179956   -0.860854
      3          8           0        2.534903    1.981941    0.385811
      4          1           0        3.290627    1.880768   -0.189872
      5          8           0        0.676184    0.631618   -0.934056
      6          1           0        1.784958    1.605456   -0.151449
      7          8           0        1.848280   -0.869412    0.914158
      8          1           0        2.222668    0.005790    1.067981
      9          6           0       -2.241086   -0.387972    0.413873
     10          1           0       -2.981382   -0.734796    1.143188
     11          1           0       -2.571103   -0.682400   -0.587272
     12          6           0       -2.150100    1.131610    0.467329
     13          1           0       -1.522926    1.402342    1.330212
     14          1           0       -3.156998    1.515304    0.665487
     15          8           0       -1.012800   -1.034372    0.725607
     16          8           0       -1.706582    1.727683   -0.711191
     17          1           0       -0.791538    1.388861   -0.889453
     18          1           0       -0.788520   -1.825011    0.062927
 ---------------------------------------------------------------------
 Rotational constants (GHZ):           1.4693783           1.0568994           0.7424905
 Standard basis: def2TZVPP (5D, 7F)
 There are   471 symmetry adapted cartesian basis functions of A   symmetry.
 There are   416 symmetry adapted basis functions of A   symmetry.
   416 basis functions,   630 primitive gaussians,   471 cartesian basis functions
    42 alpha electrons       42 beta electrons
       nuclear repulsion energy       623.1361893461 Hartrees.
 NAtoms=   18 NActive=   18 NUniq=   18 SFac= 1.00D+00 NAtFMM=   60 NAOKFM=F Big=F
 Integral buffers will be    131072 words long.
 Raffenetti 2 integral format.
 Two-electron integral symmetry is turned on.
 Nuclear repulsion after empirical dispersion term =      623.1268030311 Hartrees.
 One-electron integrals computed using PRISM.
   1 Symmetry operations used in ECPInt.
[...]
 001187,-0.0421833,-0.1302322,-0.0601362,-0.0932267,0.3992878,0.0383548
 ,-0.1348258,0.1183379,0.3469534,-0.1589923,-0.1772854,-0.1518324,0.651
 593,-0.0180784,-0.0618051,-0.1303272,-0.0409427,-0.016651,-0.0253681,-
 0.0614667,-0.0279695,-0.1714014,-0.2329751,0.0936322,0.0973288,0.08328
 65,-0.0075741,-0.0185462,0.0500329,-0.0004796,0.0237011,-1.5558204,0.3
 351912,0.3816874,0.5606137,-0.8310026,-0.1948416,0.5515916,-0.1486734,
 -0.678102,-0.9108169,0.0584902,0.2022858,0.0644102,-0.6816305,0.124855
 ,0.2316301,0.1536145,-0.7892633,0.9363846,-0.2667207,-0.0973822,-0.279
 7224,0.3608824,0.0381467,-0.0909905,0.036652,0.2119563,0.6745283,-0.26
 33944,-0.3600643,-0.4318848,0.4904212,0.2657764,-0.6109997,0.3093126,0
 .5438995\Polar=89.0705683,0.1834847,79.3910296,-3.0607746,1.106188,68.
 2526522\Quadrupole=6.4069014,-9.3489005,2.9419991,4.5131097,-4.9026662
 ,-1.1353988\PG=C01 [X(C2H9O6Si1)]\NImag=1\\0.29210092,0.09425104,0.779
 88607,0.17480848,-0.03156197,0.37536858,-0.07482950,-0.05637807,-0.016
 59975,0.07611781,-0.07517008,-0.33487063,-0.10994762,0.05191190,0.3835
 0521,-0.02567873,-0.11764102,-0.10035725,0.01271307,0.15569223,0.12552
 215,-0.00496375,0.01069838,-0.00995949,0.00031848,-0.00350671,0.001428
 80,0.59080805,0.00597204,0.00561602,0.00085866,-0.00191797,-0.00240908
 ,-0.00052890,0.09412601,0.11015468,-0.00595305,0.00817926,-0.01098164,
 0.00078551,-0.00214990,0.00180187,-0.10559977,0.13849749,0.36565862,-0
 .00061319,-0.00113880,0.00020373,0.00010610,0.00032609,0.00003571,-0.3
 5990926,0.01661017,0.22070757,0.38735563,-0.00215229,-0.00041095,-0.00
 051126,0.00046678,0.00016826,0.00011664,0.03793286,-0.01399062,-0.0437
 9452,-0.02135037,0.01251276,0.00072714,-0.00040203,0.00075018,-0.00014
 677,-0.00001160,-0.00015590,0.26536057,-0.03235980,-0.21474722,-0.2470
 3352,0.03285362,0.20513296,-0.05419332,0.01375343,-0.01207594,0.014764
 11,-0.00368212,-0.00090169,-0.01571228,-0.01839819,-0.01574039,0.00151
 355,0.00093040,-0.00043222,0.08094415,0.02043158,-0.33264921,0.1361658
 8,-0.00642519,-0.02026771,0.01142116,-0.02678130,-0.00932091,-0.018702
 61,-0.00034561,-0.00153890,-0.00083555,-0.01996570,0.37629183,-0.01570
 695,0.14231073,-0.12122068,-0.00259132,-0.00556462,0.01239689,-0.01103
 977,-0.00926321,0.00082358,-0.00173397,-0.00108021,-0.00185175,0.02441
 814,-0.16027516,0.13682453,0.00739166,-0.01530855,0.01410116,-0.000416
 50,0.00468798,-0.00230316,-0.21112947,-0.09281267,-0.09775982,-0.02852
 174,-0.01534172,-0.01908049,-0.00096237,0.02030701,0.00384961,0.239433
 33,-0.00232446,-0.01869332,0.00752894,0.00057458,0.00350551,-0.0010506
 2,-0.10875686,-0.08368645,-0.07885744,0.00566583,0.00301926,0.00061521
 ,0.01234593,0.00489364,0.00533708,0.09264467,0.08664186,0.00607947,-0.
 00737966,0.01249217,-0.00048913,0.00288125,-0.00172668,-0.14418760,-0.
 09298600,-0.14703316,0.02770492,0.01125755,0.01199315,0.00672808,0.012
 65809,-0.01008095,0.10962991,0.06713349,0.14226039,-0.13804116,0.00508
 094,-0.11386381,-0.00188826,-0.00504563,-0.00970412,0.00559415,-0.0059
 1420,0.00479644,0.00009504,0.00172040,-0.00124517,0.00264050,0.0089311
 6,-0.01335570,-0.00693500,-0.00323293,-0.00379716,0.23049681,-0.010810
 57,-0.05494611,-0.00873103,-0.01848029,-0.00182344,-0.01596560,-0.0017
 0456,-0.00903755,0.00406427,0.00094610,-0.00046775,-0.00001516,0.01513
 487,0.00033396,0.01923006,-0.00167126,0.00081769,-0.00198160,0.1652094
 3,0.49938670,-0.10648212,0.00919160,-0.15483690,-0.01311548,-0.0057872
 0,-0.00038245,0.00284989,0.00086831,0.00536686,-0.00036050,-0.00052744
 ,-0.00013578,-0.01892382,0.01609006,-0.00958937,-0.00494559,-0.0041094
 2,-0.00455746,0.16924472,0.05779834,0.19362935,-0.01187028,-0.01937847
 ,-0.01093034,0.00035703,0.00039328,-0.00150450,-0.00607416,0.00234238,
 -0.00185669,-0.00010665,-0.00229643,0.00187118,0.00088668,-0.00155733,
 0.00437219,0.00342540,0.00382640,-0.00084315,-0.07858477,-0.14766342,-
 0.03387907,0.09293642,-0.00686281,0.00085889,-0.00637644,0.00192201,0.
 00154102,0.00214883,-0.00068951,0.00427825,-0.00584908,-0.00095403,0.0
 0056017,0.00008684,0.00049691,-0.00726645,0.00228783,0.00623984,0.0007
 8841,0.00670282,-0.16551001,-0.43817025,-0.07249412,0.16336167,0.43742
 704,-0.01315857,-0.02122036,-0.00626839,-0.00329488,-0.00029249,-0.001
 91689,0.00035046,-0.00536005,-0.00172481,0.00059971,0.00172117,-0.0009
 3058,0.00452156,0.00058315,0.00194753,-0.00206461,0.00417595,-0.002164
 88,-0.02987367,-0.05334807,-0.03018703,0.04268288,0.07326008,0.0417662
 5,-0.02394361,-0.00327105,0.00596775,0.01340081,-0.00276219,-0.0097694
 7,0.00092411,0.00167323,0.00056238,-0.00017782,-0.00025276,0.00002944,
 0.00210182,0.00799057,-0.00414615,-0.00116583,-0.00169907,-0.00092899,
 0.00338840,0.00146693,0.00122712,-0.00040930,-0.00079236,-0.00006892,0
 .49941734,0.01120969,0.00581039,-0.01236586,-0.00161509,0.00312961,0.0
 0105799,-0.00008406,-0.00078518,-0.00007047,0.00005386,0.00012267,-0.0
 0006064,0.00057343,-0.00393765,0.00159592,0.00007784,0.00057155,0.0002
 9212,-0.00428829,-0.00145796,-0.00003147,-0.00020615,0.00083814,0.0000
 8287,0.03929911,0.48612462,-0.00177501,-0.00648973,0.00192271,0.006412
 20,-0.00364166,-0.00906011,-0.00004023,0.00012061,-0.00001045,-0.00001
 846,-0.00002297,0.00002049,-0.00042637,0.00083152,-0.00087501,-0.00003
 787,-0.00005680,-0.00005741,0.00029070,0.00038553,0.00063135,-0.000017
 39,-0.00016524,0.00015220,-0.02351413,0.01335397,0.60819878,0.00609728
 ,0.00227385,-0.00346723,-0.00184664,0.00200166,0.00264421,-0.00020885,
 -0.00032652,-0.00011511,0.00004124,0.00005530,-0.00000180,-0.00030580,
 -0.00136103,0.00072480,0.00026343,0.00030418,0.00016576,-0.00120676,-0
 .00033764,-0.00041293,0.00001034,0.00022762,0.00005881,-0.13463304,-0.
 05552078,0.10664960,0.16762052,-0.00169632,-0.00134957,0.00130806,0.00
 056562,-0.00049564,-0.00077962,-0.00005865,0.00006096,-0.00004804,0.00
 000814,-0.00000739,0.00001038,-0.00056552,0.00103100,-0.00031860,0.000
 08821,-0.00003515,0.00002150,0.00028067,0.00020466,-0.00006562,0.00002
 499,-0.00008045,0.00004265,-0.05669899,-0.07952861,0.05691615,0.049532
 52,0.08357933,-0.00131377,0.00042520,-0.00018852,0.00026791,-0.0000738
 3,0.00016420,0.00017323,0.00012517,0.00010434,-0.00002339,-0.00001715,
 -0.00000755,0.00058639,-0.00009909,0.00012692,-0.00020072,-0.00016207,
 -0.00011683,0.00011266,-0.00005859,0.00018254,-0.00006449,-0.00001537,
 -0.00004751,0.11007030,0.05767073,-0.18149167,-0.11967160,-0.06532651,
 0.18654492,0.00198181,0.00034912,-0.00451169,-0.00008157,0.00031990,0.
 00177300,0.00003641,-0.00012199,0.00007591,0.00000770,0.00002642,-0.00
 001143,0.00036130,-0.00051160,0.00084175,-0.00005611,0.00002726,-0.000
 05676,-0.00097557,-0.00020395,0.00042351,-0.00000779,0.00018989,0.0000
 1839,-0.07069948,-0.02275797,-0.05881200,0.00775283,0.00683700,0.01759
 251,0.08628226,-0.00133770,0.00075665,0.00124272,-0.00088915,-0.000594
 21,-0.00013156,0.00003301,0.00010033,0.00008543,-0.00001345,-0.0000057
 3,0.00000629,0.00043077,0.00000932,0.00005753,-0.00005450,-0.00012211,
 -0.00012784,0.00033127,-0.00003142,-0.00007208,0.00003140,-0.00007532,
 -0.00006823,-0.02528667,-0.07481361,-0.07323630,0.00263420,0.00461563,
 0.01076678,0.02067096,0.07991667,0.00107524,0.00085655,-0.00098668,-0.
 00163810,0.00065925,0.00132430,-0.00006751,-0.00011176,0.00000896,0.00
 001284,0.00002449,-0.00000207,0.00000036,-0.00035573,0.00030300,0.0000
 7248,0.00008077,0.00000860,-0.00037068,-0.00014428,0.00000042,0.000057
 15,0.00009586,-0.00001368,-0.06669515,-0.07337092,-0.25785453,-0.00508
 354,-0.00825647,-0.01837942,0.07953140,0.07702529,0.27590130,0.0019602
 0,0.00710202,-0.00184890,-0.00362868,-0.00093227,0.00360379,0.00057702
 ,0.00001002,0.00019697,-0.00005491,-0.00002088,-0.00005586,0.00231236,
 -0.00191456,-0.00092119,-0.00069211,-0.00012464,-0.00008557,-0.0000732
 2,-0.00103450,0.00014672,-0.00021193,0.00024293,-0.00013961,-0.0792403
 1,-0.01720637,-0.00249862,-0.00164555,-0.01792451,-0.00071869,0.001766
 97,-0.01143201,0.00032829,0.61516261,0.00581365,0.00470345,-0.00360059
 ,-0.00187669,-0.00037681,0.00120152,0.00040149,-0.00012390,0.00021124,
 -0.00004496,0.00001244,-0.00004258,0.00454199,-0.00570789,0.00125801,-
 0.00060171,-0.00002669,-0.00008167,-0.00065622,-0.00105961,0.00060948,
 -0.00015977,0.00025825,-0.00020872,-0.00277997,-0.18596061,-0.01612558
 ,0.00107451,-0.00533250,-0.00294990,-0.00286502,-0.01314192,0.00062192
 ,-0.02038333,0.47280558,-0.00213048,-0.00669904,0.00801420,0.00197758,
 0.00134652,-0.00209803,-0.00087529,-0.00046671,-0.00132166,0.00020070,
 0.00002290,0.00000582,-0.01055550,0.00729877,-0.00281802,0.00150337,0.
 00097975,0.00155601,0.00021597,0.00084105,-0.00280204,-0.00019103,0.00
 000688,0.00078700,-0.00258124,-0.01127875,-0.08115628,0.00328256,0.025
 72434,0.00011955,-0.00260486,-0.03272291,-0.00261867,0.00657154,0.0215
 3942,0.53616945,-0.00042683,0.00022673,-0.00015035,-0.00000172,-0.0002
 2538,-0.00003399,0.00016932,0.00010811,0.00007616,-0.00001940,-0.00002
 142,-0.00000790,0.00057378,-0.00052808,-0.00000647,-0.00021365,-0.0001
 0903,-0.00007766,0.00018170,-0.00001454,0.00021782,-0.00003060,-0.0000
 1900,-0.00006365,-0.00148676,0.00272347,-0.00217066,-0.00013880,-0.000
 28063,-0.00001938,0.00045488,0.00001085,0.00084510,-0.14302943,-0.0464
 0725,-0.10575446,0.14516196,-0.00003027,-0.00096472,-0.00051938,0.0000
 0573,0.00020906,0.00032990,-0.00003869,-0.00013234,-0.00001900,0.00001
 167,-0.00000375,0.00000266,-0.00032460,0.00020622,0.00017753,0.0000906
 2,0.00016073,0.00003207,-0.00007269,0.00018203,0.00015500,0.00014563,0
 .00003141,-0.00003617,-0.02244284,-0.01456858,-0.02708185,-0.00007333,
 0.00017111,0.00052451,0.00000579,-0.00628200,0.00005100,-0.04386433,-0
 .07317854,-0.05353559,0.04989444,0.07918560,0.00000148,-0.00026341,-0.
 00124939,-0.00010618,-0.00003600,0.00030661,-0.00003315,0.00012547,0.0
 0027288,-0.00004446,0.00001318,0.00001249,0.00153536,-0.00057840,0.001
 28602,-0.00004791,-0.00023355,-0.00041829,0.00001849,0.00011474,0.0005
 3763,0.00014758,-0.00010836,-0.00013110,-0.00508318,-0.00284533,-0.000
 39585,0.00000235,-0.00168208,-0.00004664,-0.00055163,0.00041235,0.0005
 3393,-0.10210032,-0.05542140,-0.16900617,0.11542384,0.05389198,0.20326
 094,0.00060520,-0.00139831,0.00016860,-0.00021324,0.00035746,0.0001102
 3,-0.00032415,-0.00023607,-0.00013304,0.00003839,0.00004329,0.00001645
 ,-0.00137867,0.00087223,0.00000619,0.00042966,0.00026539,0.00012234,-0
 .00034075,0.00023307,-0.00028285,0.00015470,0.00001335,0.00006743,-0.0
 0180221,-0.00252780,-0.00052269,0.00133329,0.00073740,-0.00054837,-0.0
 0012143,0.00042792,0.00001334,-0.26040155,0.08077201,0.03408277,-0.017
 51881,0.00789368,0.00198957,0.28546450,-0.00181232,-0.00143308,0.00061
 070,0.00130820,-0.00001899,-0.00121957,0.00000307,0.00009124,0.0000269
 9,-0.00000725,-0.00001275,0.00000806,-0.00052544,0.00111005,-0.0002074
 8,0.00000831,-0.00007630,-0.00006909,0.00026371,0.00028596,0.00007055,
 0.00002470,-0.00009022,0.00000613,0.03115540,-0.00827113,-0.00260876,0
 .00037685,0.00050076,0.00115109,-0.00085850,0.00024533,-0.00078578,0.0
 8083928,-0.08090786,-0.01835956,-0.01029541,0.00461447,0.00164175,-0.0
 8481702,0.08705082,0.00038852,0.00062826,-0.00086215,-0.00034401,-0.00
 021028,0.00027778,0.00008881,0.00007795,0.00013508,-0.00002322,-0.0000
 0876,0.00000074,0.00169175,-0.00135938,0.00080487,-0.00013669,-0.00013
 076,-0.00018258,0.00001764,-0.00011389,0.00036852,0.00003051,-0.000022
 49,-0.00009036,0.00298210,-0.00159967,-0.00043464,-0.00074180,0.000858
 69,0.00039067,0.00009231,0.00023322,-0.00014979,0.02839471,-0.01560526
 ,-0.05207167,-0.02027257,0.00844444,0.00546455,-0.04924800,0.00989677,
 0.06751566,0.00358622,0.01200403,-0.00347556,-0.03020429,0.02516567,0.
 04634586,-0.00124423,-0.00308642,-0.00084676,0.00033333,0.00053681,-0.
 00010918,-0.00054412,-0.01516734,0.00728554,0.00157023,0.00270972,0.00
 164003,-0.01483130,-0.00528091,-0.00187362,-0.00085381,0.00289875,0.00
 058689,-0.19126737,0.03727648,-0.03855148,-0.04350971,0.01876626,-0.00
 554681,-0.02857528,0.01338127,-0.00895015,-0.01202431,0.00370884,0.003
 44608,0.00217309,0.00029281,0.00102092,0.00130482,0.00181932,-0.000719
 80,0.35199731,0.02128334,-0.05308331,-0.01331328,0.05830108,0.00557863
 ,-0.04529357,-0.00092264,0.00042065,-0.00087572,0.00014371,-0.00013525
 ,0.00015737,-0.01512229,0.00363070,0.01155123,0.00107781,0.00053597,0.
 00097546,0.00122809,0.00816069,0.00347971,0.00114238,-0.00096288,0.000
 56794,0.04468369,-0.10165716,0.01241146,0.00210660,0.00534353,-0.00456
 085,0.00114352,0.00296891,0.00449764,0.04763331,-0.01432112,0.00279308
 ,-0.00000856,0.00461617,0.00117392,0.00118575,-0.00941643,0.00056808,-
 0.12702453,0.24626847,0.00366952,-0.01078221,-0.03702426,0.05428859,-0
 .01870491,-0.02399804,0.00125522,0.00128985,0.00144404,-0.00020426,-0.
 00018963,-0.00003920,0.00515396,0.01141059,-0.00028352,-0.00165155,-0.
 00183774,-0.00199050,-0.00290114,0.00303835,0.00673478,0.00028432,0.00
 008723,-0.00016804,-0.03244352,0.00310593,-0.07999652,0.01759774,-0.00
 924518,0.01140017,-0.03045053,0.01437758,0.00068656,0.00481313,0.00030
 710,-0.00065005,0.00105790,0.00140803,0.00066629,0.00053424,-0.0024856
 0,0.00132305,0.00664883,0.07574804,0.19308076,-0.00959896,-0.01749307,
 0.01228082,0.00456136,0.00361113,-0.00294850,-0.00222392,-0.00184624,-
 0.00175945,0.00035140,0.00030258,0.00005723,-0.03661891,0.02888420,-0.
 00280719,0.00313176,0.00277930,0.00212496,-0.00054263,0.00287434,-0.00
 463541,0.00059639,0.00009800,0.00120763,-0.00348256,-0.00481059,0.0066
 0416,0.00140457,-0.00185404,0.00041450,0.00014385,0.00142356,0.0002242
 8,-0.10958295,-0.01661027,0.05834909,0.01357446,0.00731538,-0.00821091
 ,-0.01182672,-0.01761115,0.04019237,0.01035391,-0.00484557,-0.00362319
 ,0.47333454,-0.00218850,0.00243267,-0.00183534,0.00124247,-0.00075395,
 -0.00061364,0.00053794,0.00182993,0.00061377,-0.00009446,-0.00022244,0
 .00004066,0.01566215,-0.00009289,0.00012381,-0.00047645,-0.00237951,-0
 .00101070,0.00102730,0.00003485,0.00129860,-0.00021539,-0.00052771,-0.
 00023033,-0.01887539,-0.01842294,0.04196259,-0.00093215,-0.00860817,0.
 00226318,0.00100823,0.00536023,0.00124482,-0.00005610,-0.10282637,0.05
 900834,0.00370808,0.00588174,0.00181774,-0.00156860,0.00649524,-0.0055
 2538,0.00282320,0.00078880,-0.00177817,-0.10115377,0.17815889,0.004139
 68,0.00663061,-0.00665690,-0.00241530,-0.00089620,0.00275326,0.0007921
 5,0.00055450,0.00114256,-0.00017202,0.00000360,-0.00004679,0.00918395,
 -0.00758083,0.00840921,-0.00108594,-0.00113180,-0.00128922,-0.00014901
 ,-0.00125302,0.00247814,-0.00000630,0.00002007,-0.00068916,0.00870989,
 0.01050052,-0.01075808,-0.00021383,0.00151097,0.00086211,0.00005928,0.
 00111552,0.00246709,0.03258107,0.07606050,-0.21659841,0.01035635,0.017
 69821,-0.04169305,0.01305258,0.00742016,-0.01777743,-0.00658904,0.0028
 0789,0.00441869,-0.13432994,-0.10286219,0.32889432,0.01004947,0.022869
 20,-0.01466096,-0.00545814,-0.00512120,0.00316483,0.00309924,0.0028495
 1,0.00233382,-0.00039385,-0.00038919,0.00000236,0.00861073,-0.02045237
 ,0.00644507,-0.00515300,-0.00417785,-0.00328231,0.00142795,-0.00379998
 ,0.00624684,-0.00088426,-0.00031178,-0.00154263,0.00639882,-0.00243972
 ,-0.00131749,-0.00029243,0.00160837,-0.00072025,-0.00065955,-0.0007213
 1,-0.00004686,-0.01152508,-0.00504285,0.01682662,0.00052156,0.00098551
 ,-0.00422639,0.00399702,0.00049671,-0.00269307,-0.01050215,0.00186621,
 0.00532365,-0.33078382,0.10038195,0.06385767,0.32808034,0.00228250,-0.
 01281830,0.00770927,0.00077989,0.00205470,-0.00101860,-0.00135024,-0.0
 0269960,-0.00138044,0.00021017,0.00029747,-0.00000806,-0.01138420,-0.0
 0241710,-0.00273246,0.00113818,0.00398981,0.00171975,-0.00104701,0.001
 22777,-0.00288097,0.00041006,0.00050128,0.00070058,-0.00471414,0.00122
 262,0.00194198,0.00054305,-0.00058746,-0.00033453,-0.00013225,-0.00037
 904,-0.00014958,-0.01972983,0.00677968,0.00227595,0.00111693,-0.000074
 33,0.00196194,-0.00194174,-0.00093581,0.00403294,0.00399564,-0.0002024
 6,-0.00200023,0.11664729,-0.06825566,-0.00865181,-0.08594458,0.0720103
 0,-0.00304827,0.00043124,0.00161610,0.00044455,0.00010458,-0.00080144,
 -0.00013260,-0.00052949,-0.00057980,0.00010164,-0.00002745,0.00003623,
 0.00035851,0.00089971,-0.01120341,-0.00041003,0.00087837,0.00076176,-0
 .00031938,0.00083660,-0.00138022,0.00003787,0.00019885,0.00030937,0.00
 044976,0.00159862,0.00110854,-0.00018326,-0.00043863,0.00008771,-0.000
 18010,-0.00003209,0.00001067,0.03982924,-0.00764494,-0.01714366,0.0004
 9666,-0.00092524,0.00078682,0.00120496,0.00240557,-0.00445854,0.000938
 21,-0.00065497,-0.00103081,0.03315526,0.00462136,-0.05279786,-0.071913
 28,-0.00230273,0.08374083,-0.00529215,-0.05424243,-0.01598651,0.008942
 84,0.00767053,-0.01897535,0.00026329,0.00096881,0.00022932,-0.00004557
 ,-0.00018977,0.00005997,-0.00499350,0.00759336,0.00436542,-0.00039969,
 -0.00071840,-0.00044713,-0.00040511,0.00513688,0.00455476,0.00066656,-
 0.00055146,0.00011280,-0.01732302,0.02024293,0.00974574,-0.00073593,0.
 00062950,-0.00039005,0.00238877,0.00035958,0.00069151,0.00033089,0.001
 11557,-0.00176343,0.00005526,0.00020549,0.00026453,0.00059996,-0.00036
 845,0.00030045,-0.03776233,-0.03387189,-0.02935290,-0.00279176,-0.0008
 3052,0.00222877,0.00346716,-0.00087973,-0.00082976,0.05303431,-0.05685
 852,0.01115505,0.03333852,-0.02949580,-0.03808153,0.01227442,0.0001604
 6,-0.00036642,0.00006877,-0.00002681,0.00010250,-0.00004565,0.00609819
 ,-0.00430803,-0.00448801,-0.00009361,0.00009509,-0.00003755,0.00169404
 ,-0.00364022,-0.00359334,-0.00022592,0.00009042,-0.00037611,0.01330652
 ,-0.00841617,0.00150508,-0.00257887,0.00051796,0.00067121,-0.00312680,
 0.00147226,-0.00198307,-0.00120424,-0.00159558,0.00122555,0.00012069,-
 0.00005429,0.00001546,-0.00031202,0.00076871,-0.00016449,0.02518041,-0
 .09853391,-0.06374904,0.00228891,0.00110728,-0.00194670,-0.00265662,0.
 00028612,0.00058063,0.04772999,0.13940074,-0.01564257,0.03378597,0.040
 46882,-0.03614846,-0.01336752,-0.00405027,-0.00036371,-0.00091209,-0.0
 0036005,0.00004699,0.00016621,-0.00003522,0.00487791,-0.00757217,-0.00
 499983,0.00056784,0.00084064,0.00054587,0.00088321,-0.00469770,-0.0060
 5834,-0.00019073,0.00013580,-0.00062992,0.01523200,0.01236443,0.010056
 48,-0.00123472,-0.00023200,0.00029498,-0.00322907,0.00106828,-0.001239
 98,-0.00809672,-0.00012855,0.00163262,0.00008327,-0.00059812,-0.000187
 68,-0.00063376,0.00249806,-0.00025375,-0.00124997,-0.05203343,-0.07457
 341,0.00370428,0.00086087,-0.00311848,-0.00379762,0.00111699,0.0009377
 2,0.04519184,0.02670433,0.04157044\\-0.00000033,-0.00000057,0.00000228
 ,0.00000188,-0.00000057,0.00000246,-0.00000088,0.00000125,-0.00000011,
 -0.00000048,0.00000105,0.00000055,0.00000149,-0.00000085,-0.00000013,-
 0.00000022,0.00000053,-0.00000011,-0.00000017,0.00000158,0.00000215,-0
 .00000047,0.00000186,0.00000159,0.00000023,-0.00000066,-0.00000060,-0.
 00000024,-0.00000009,-0.00000087,0.00000087,-0.00000150,-0.00000084,-0
 .00000028,-0.00000043,-0.00000211,-0.00000104,0.00000060,-0.00000165,-
 0.00000071,-0.00000068,-0.00000262,-0.00000050,0.00000023,0.00000193,-
 0.00000127,-0.00000099,-0.00000160,0.00000024,-0.00000088,-0.00000156,
 0.00000187,0.00000012,0.00000124\\\@
 The archive entry for this job was punched.


 ASKING FOR EFFICIENCY AND ADAPTABILITY IN THE SAME PROGRAM IS LIKE
 ASKING FOR A BEAUTIFUL AND MODEST WIFE ...
 WE'LL PROBABLY HAVE TO SETTLE FOR ONE OR THE OTHER.

             -- THE PSYCHOLOGY OF COMPUTER PROGRAMMING
                GERALD M. WEINBERG
 Job cpu time:       0 days  2 hours 56 minutes 25.5 seconds.
 Elapsed time:       0 days  0 hours 11 minutes  6.5 seconds.
 File lengths (MBytes):  RWF=    275 Int=      0 D2E=      0 Chk=     15 Scr=      1
 Normal termination of Gaussian 16 at Wed Nov 15 11:08:35 2023.
