 Entering Gaussian System, Link 0=/opt/software/gaussian/g16.c01/g16
 Initial command:
 /opt/software/gaussian/g16.c01/l1.exe "/scratch/arhender/17051648/Gau-25729.inp" -scrdir="/scratch/arhender/17051648/"
 Entering Link 1 = /opt/software/gaussian/g16.c01/l1.exe PID=     25736.
  
 Copyright (c) 1988-2019, Gaussian, Inc.  All Rights Reserved.
  
 This is part of the Gaussian(R) 16 program.  It is based on
 the Gaussian(R) 09 system (copyright 2009, Gaussian, Inc.),
 the Gaussian(R) 03 system (copyright 2003, Gaussian, Inc.),
 the Gaussian(R) 98 system (copyright 1998, Gaussian, Inc.),
 the Gaussian(R) 94 system (copyright 1995, Gaussian, Inc.),
 the Gaussian 92(TM) system (copyright 1992, Gaussian, Inc.),
 the Gaussian 90(TM) system (copyright 1990, Gaussian, Inc.),
 the Gaussian 88(TM) system (copyright 1988, Gaussian, Inc.),
 the Gaussian 86(TM) system (copyright 1986, Carnegie Mellon
 University), and the Gaussian 82(TM) system (copyright 1983,
 Carnegie Mellon University). Gaussian is a federally registered
 trademark of Gaussian, Inc.
  
 This software contains proprietary and confidential information,
 including trade secrets, belonging to Gaussian, Inc.
  
 This software is provided under written license and may be
 used, copied, transmitted, or stored only in accord with that
 written license.
  
 The following legend is applicable only to US Government
 contracts under FAR:
  
                    RESTRICTED RIGHTS LEGEND
  
 Use, reproduction and disclosure by the US Government is
 subject to restrictions as set forth in subparagraphs (a)
 and (c) of the Commercial Computer Software - Restricted
 Rights clause in FAR 52.227-19.
  
 Gaussian, Inc.
 340 Quinnipiac St., Bldg. 40, Wallingford CT 06492
  
  
 ---------------------------------------------------------------
 Warning -- This program may not be used in any manner that
 competes with the business of Gaussian, Inc. or will provide
 assistance to any competitor of Gaussian, Inc.  The licensee
 of this program is prohibited from giving any competitor of
 Gaussian, Inc. access to this program.  By using this program,
 the user acknowledges that Gaussian, Inc. is engaged in the
 business of creating and licensing software in the field of
 computational chemistry and represents and warrants to the
 licensee that it is not a competitor of Gaussian, Inc. and that
 it will not use this program in any manner prohibited above.
 ---------------------------------------------------------------
  

 Cite this work as:
 Gaussian 16, Revision C.01,
 M. J. Frisch, G. W. Trucks, H. B. Schlegel, G. E. Scuseria, 
 M. A. Robb, J. R. Cheeseman, G. Scalmani, V. Barone, 
 G. A. Petersson, H. Nakatsuji, X. Li, M. Caricato, A. V. Marenich, 
 J. Bloino, B. G. Janesko, R. Gomperts, B. Mennucci, H. P. Hratchian, 
 J. V. Ortiz, A. F. Izmaylov, J. L. Sonnenberg, D. Williams-Young, 
 F. Ding, F. Lipparini, F. Egidi, J. Goings, B. Peng, A. Petrone, 
 T. Henderson, D. Ranasinghe, V. G. Zakrzewski, J. Gao, N. Rega, 
 G. Zheng, W. Liang, M. Hada, M. Ehara, K. Toyota, R. Fukuda, 
 J. Hasegawa, M. Ishida, T. Nakajima, Y. Honda, O. Kitao, H. Nakai, 
 T. Vreven, K. Throssell, J. A. Montgomery, Jr., J. E. Peralta, 
 F. Ogliaro, M. J. Bearpark, J. J. Heyd, E. N. Brothers, K. N. Kudin, 
 V. N. Staroverov, T. A. Keith, R. Kobayashi, J. Normand, 
 K. Raghavachari, A. P. Rendell, J. C. Burant, S. S. Iyengar, 
 J. Tomasi, M. Cossi, J. M. Millam, M. Klene, C. Adamo, R. Cammi, 
 J. W. Ochterski, R. L. Martin, K. Morokuma, O. Farkas, 
 J. B. Foresman, and D. J. Fox, Gaussian, Inc., Wallingford CT, 2019.
 
 ******************************************
 Gaussian 16:  ES64L-G16RevC.01  3-Jul-2019
                17-Feb-2024 
 ******************************************
 %chk=TSopt_EG_DeprotonatedOH_AttackPL2.chk
 %mem=1600MB
 %nprocs=4
 Will use up to    4 processors via shared memory.
 ------------------------------------------------------------------
 # opt=(calcall,ts,noeigen) freq wb97xd/def2tzvpp geom=connectivity
 ------------------------------------------------------------------
 1/5=1,10=4,11=1,18=20,26=3,38=1,57=2/1,3;
 2/9=110,12=2,17=6,18=5,40=1/2;
 3/5=44,7=202,11=2,25=1,30=1,71=2,74=-58,140=1/1,2,3;
 4//1;
 5/5=2,38=5/2;
 8/6=4,10=90,11=11/1;
 11/6=1,8=1,9=11,15=111,16=1/1,2,10;
 10/6=1/2;
 6/7=2,8=2,9=2,10=2,18=1,28=1/1;
 7/10=1,25=1/1,2,3,16;
 1/5=1,10=4,11=1,18=20,26=3/3(3);
 2/9=110/2;
 7/8=1,9=1,25=1,44=-1/16;
 99//99;
 2/9=110/2;
 3/5=44,7=202,11=2,25=1,30=1,71=2,74=-58,140=1/1,2,3;
 4/5=5,16=3,69=1/1;
 5/5=2,38=5/2;
 8/6=4,10=90,11=11/1;
 11/6=1,8=1,9=11,15=111,16=1/1,2,10;
 10/6=1/2;
 7/10=1,25=1/1,2,3,16;
 1/5=1,10=4,11=1,18=20,26=3/3(-8);
 2/9=110/2;
 6/7=2,8=2,9=2,10=2,18=1,19=2,28=1/1;
 7/8=1,9=1,25=1,44=-1/16;
 99//99;
 ---------------------------------------------------------------------
 EG attack on PL2 extend attacking bond length attacking OH protonated
 ---------------------------------------------------------------------
 Symbolic Z-matrix:
 Charge = -2 Multiplicity = 1
 Si                    0.96634  -0.40693  -0.01396 
 O                     0.2579   -1.48216   1.19732 
 O                    -0.06653  -1.13353  -1.22758 
 O                     1.37908   0.81946  -1.18183 
 O                     1.58327   0.61467   1.26815 
 O                    -1.00393   0.95235   0.41618 
 O                     2.38872  -1.38604  -0.24629 
 H                     2.38942  -1.98597   0.4962 
 C                     2.10556   1.85786  -0.64125 
 H                     3.19438   1.68884  -0.76804 
 H                     1.86045   2.81137  -1.14084 
 C                     1.7694    1.9167    0.85553 
 H                     2.58914   2.39619   1.4212 
 H                     0.84887   2.50327   1.00168 
 C                    -0.88129  -2.11539   0.73995 
 H                    -0.99885  -3.10623   1.2147 
 H                    -1.77901  -1.51961   0.96226 
 C                    -0.72321  -2.25587  -0.77932 
 H                    -0.14094  -3.17502  -1.0034 
 H                    -1.70515  -2.36249  -1.27143 
 C                    -1.71803   1.37981  -0.65523 
 H                    -1.29012   1.07087  -1.62399 
 H                    -1.8107    2.49836  -0.69106 
 C                    -3.15723   0.80907  -0.53447 
 H                    -3.89832   1.41742  -1.07539 
 H                    -3.17874  -0.21224  -0.94868 
 O                    -3.47016   0.78409   0.84096 
 H                    -2.52725   0.76847   1.1757 
 
 Add virtual bond connecting atoms O6         and Si1        Dist= 4.60D+00.
 Add virtual bond connecting atoms O6         and H14        Dist= 4.70D+00.
 Add virtual bond connecting atoms H22        and O3         Dist= 4.82D+00.
 Add virtual bond connecting atoms H28        and H17        Dist= 4.57D+00.

 GradGradGradGradGradGradGradGradGradGradGradGradGradGradGradGradGradGrad
 Berny optimization.
 Initialization pass.
                           ----------------------------
                           !    Initial Parameters    !
                           ! (Angstroms and Degrees)  !
 --------------------------                            --------------------------
 ! Name  Definition              Value          Derivative Info.                !
 --------------------------------------------------------------------------------
 ! R1    R(1,2)                  1.7678         calculate D2E/DX2 analytically  !
 ! R2    R(1,3)                  1.7515         calculate D2E/DX2 analytically  !
 ! R3    R(1,4)                  1.7431         calculate D2E/DX2 analytically  !
 ! R4    R(1,5)                  1.7516         calculate D2E/DX2 analytically  !
 ! R5    R(1,6)                  2.432          calculate D2E/DX2 analytically  !
 ! R6    R(1,7)                  1.7424         calculate D2E/DX2 analytically  !
 ! R7    R(2,15)                 1.3813         calculate D2E/DX2 analytically  !
 ! R8    R(3,18)                 1.3754         calculate D2E/DX2 analytically  !
 ! R9    R(3,22)                 2.5522         calculate D2E/DX2 analytically  !
 ! R10   R(4,9)                  1.3778         calculate D2E/DX2 analytically  !
 ! R11   R(5,12)                 1.3785         calculate D2E/DX2 analytically  !
 ! R12   R(6,14)                 2.4862         calculate D2E/DX2 analytically  !
 ! R13   R(6,21)                 1.3567         calculate D2E/DX2 analytically  !
 ! R14   R(7,8)                  0.9546         calculate D2E/DX2 analytically  !
 ! R15   R(9,10)                 1.1091         calculate D2E/DX2 analytically  !
 ! R16   R(9,11)                 1.104          calculate D2E/DX2 analytically  !
 ! R17   R(9,12)                 1.5352         calculate D2E/DX2 analytically  !
 ! R18   R(12,13)                1.1054         calculate D2E/DX2 analytically  !
 ! R19   R(12,14)                1.1013         calculate D2E/DX2 analytically  !
 ! R20   R(15,16)                1.105          calculate D2E/DX2 analytically  !
 ! R21   R(15,17)                1.1001         calculate D2E/DX2 analytically  !
 ! R22   R(15,18)                1.5339         calculate D2E/DX2 analytically  !
 ! R23   R(17,28)                2.4168         calculate D2E/DX2 analytically  !
 ! R24   R(18,19)                1.1109         calculate D2E/DX2 analytically  !
 ! R25   R(18,20)                1.1035         calculate D2E/DX2 analytically  !
 ! R26   R(21,22)                1.1032         calculate D2E/DX2 analytically  !
 ! R27   R(21,23)                1.123          calculate D2E/DX2 analytically  !
 ! R28   R(21,24)                1.5529         calculate D2E/DX2 analytically  !
 ! R29   R(24,25)                1.1009         calculate D2E/DX2 analytically  !
 ! R30   R(24,26)                1.1023         calculate D2E/DX2 analytically  !
 ! R31   R(24,27)                1.4108         calculate D2E/DX2 analytically  !
 ! R32   R(27,28)                1.0007         calculate D2E/DX2 analytically  !
 ! A1    A(2,1,3)               89.2047         calculate D2E/DX2 analytically  !
 ! A2    A(2,1,5)               89.6766         calculate D2E/DX2 analytically  !
 ! A3    A(2,1,6)               83.921          calculate D2E/DX2 analytically  !
 ! A4    A(2,1,7)               94.4001         calculate D2E/DX2 analytically  !
 ! A5    A(3,1,4)               88.1242         calculate D2E/DX2 analytically  !
 ! A6    A(3,1,5)              163.1084         calculate D2E/DX2 analytically  !
 ! A7    A(3,1,6)               82.9153         calculate D2E/DX2 analytically  !
 ! A8    A(3,1,7)               98.9686         calculate D2E/DX2 analytically  !
 ! A9    A(4,1,5)               89.8092         calculate D2E/DX2 analytically  !
 ! A10   A(4,1,6)               85.2445         calculate D2E/DX2 analytically  !
 ! A11   A(4,1,7)               96.4727         calculate D2E/DX2 analytically  !
 ! A12   A(5,1,6)               80.2065         calculate D2E/DX2 analytically  !
 ! A13   A(5,1,7)               97.922          calculate D2E/DX2 analytically  !
 ! A14   A(1,2,15)             112.4864         calculate D2E/DX2 analytically  !
 ! A15   A(1,3,18)             113.2191         calculate D2E/DX2 analytically  !
 ! A16   A(1,3,22)              91.8355         calculate D2E/DX2 analytically  !
 ! A17   A(18,3,22)            121.7708         calculate D2E/DX2 analytically  !
 ! A18   A(1,4,9)              113.0944         calculate D2E/DX2 analytically  !
 ! A19   A(1,5,12)             112.2936         calculate D2E/DX2 analytically  !
 ! A20   A(1,6,14)              77.6759         calculate D2E/DX2 analytically  !
 ! A21   A(1,6,21)             117.5712         calculate D2E/DX2 analytically  !
 ! A22   A(14,6,21)            112.439          calculate D2E/DX2 analytically  !
 ! A23   A(1,7,8)              104.4806         calculate D2E/DX2 analytically  !
 ! A24   A(4,9,10)             110.9727         calculate D2E/DX2 analytically  !
 ! A25   A(4,9,11)             110.8747         calculate D2E/DX2 analytically  !
 ! A26   A(4,9,12)             107.2157         calculate D2E/DX2 analytically  !
 ! A27   A(10,9,11)            107.3273         calculate D2E/DX2 analytically  !
 ! A28   A(10,9,12)            109.4053         calculate D2E/DX2 analytically  !
 ! A29   A(11,9,12)            111.0683         calculate D2E/DX2 analytically  !
 ! A30   A(5,12,9)             106.5711         calculate D2E/DX2 analytically  !
 ! A31   A(5,12,13)            110.8964         calculate D2E/DX2 analytically  !
 ! A32   A(5,12,14)            110.5177         calculate D2E/DX2 analytically  !
 ! A33   A(9,12,13)            110.6822         calculate D2E/DX2 analytically  !
 ! A34   A(9,12,14)            109.4405         calculate D2E/DX2 analytically  !
 ! A35   A(13,12,14)           108.7192         calculate D2E/DX2 analytically  !
 ! A36   A(6,14,12)            105.0359         calculate D2E/DX2 analytically  !
 ! A37   A(2,15,16)            110.8898         calculate D2E/DX2 analytically  !
 ! A38   A(2,15,17)            110.9659         calculate D2E/DX2 analytically  !
 ! A39   A(2,15,18)            106.5558         calculate D2E/DX2 analytically  !
 ! A40   A(16,15,17)           108.1783         calculate D2E/DX2 analytically  !
 ! A41   A(16,15,18)           110.7559         calculate D2E/DX2 analytically  !
 ! A42   A(17,15,18)           109.5021         calculate D2E/DX2 analytically  !
 ! A43   A(15,17,28)           141.5554         calculate D2E/DX2 analytically  !
 ! A44   A(3,18,15)            107.2934         calculate D2E/DX2 analytically  !
 ! A45   A(3,18,19)            111.049          calculate D2E/DX2 analytically  !
 ! A46   A(3,18,20)            110.9981         calculate D2E/DX2 analytically  !
 ! A47   A(15,18,19)           109.243          calculate D2E/DX2 analytically  !
 ! A48   A(15,18,20)           111.0285         calculate D2E/DX2 analytically  !
 ! A49   A(19,18,20)           107.248          calculate D2E/DX2 analytically  !
 ! A50   A(6,21,22)            113.6465         calculate D2E/DX2 analytically  !
 ! A51   A(6,21,23)            112.487          calculate D2E/DX2 analytically  !
 ! A52   A(6,21,24)            108.0952         calculate D2E/DX2 analytically  !
 ! A53   A(22,21,23)           106.4355         calculate D2E/DX2 analytically  !
 ! A54   A(22,21,24)           108.956          calculate D2E/DX2 analytically  !
 ! A55   A(23,21,24)           106.9824         calculate D2E/DX2 analytically  !
 ! A56   A(3,22,21)            106.9444         calculate D2E/DX2 analytically  !
 ! A57   A(21,24,25)           112.4937         calculate D2E/DX2 analytically  !
 ! A58   A(21,24,26)           109.2308         calculate D2E/DX2 analytically  !
 ! A59   A(21,24,27)           106.7318         calculate D2E/DX2 analytically  !
 ! A60   A(25,24,26)           108.3144         calculate D2E/DX2 analytically  !
 ! A61   A(25,24,27)           109.8465         calculate D2E/DX2 analytically  !
 ! A62   A(26,24,27)           110.2186         calculate D2E/DX2 analytically  !
 ! A63   A(24,27,28)            96.742          calculate D2E/DX2 analytically  !
 ! A64   A(17,28,27)           106.0788         calculate D2E/DX2 analytically  !
 ! A65   L(2,1,4,3,-1)         177.3289         calculate D2E/DX2 analytically  !
 ! A66   L(6,1,7,2,-1)         178.3211         calculate D2E/DX2 analytically  !
 ! A67   L(2,1,4,3,-2)         169.4121         calculate D2E/DX2 analytically  !
 ! A68   L(6,1,7,2,-2)         181.894          calculate D2E/DX2 analytically  !
 ! D1    D(3,1,2,15)           -12.868          calculate D2E/DX2 analytically  !
 ! D2    D(5,1,2,15)           150.2771         calculate D2E/DX2 analytically  !
 ! D3    D(6,1,2,15)            70.0917         calculate D2E/DX2 analytically  !
 ! D4    D(7,1,2,15)          -111.8023         calculate D2E/DX2 analytically  !
 ! D5    D(2,1,3,18)            -9.816          calculate D2E/DX2 analytically  !
 ! D6    D(2,1,3,22)           116.1263         calculate D2E/DX2 analytically  !
 ! D7    D(4,1,3,18)          -179.2281         calculate D2E/DX2 analytically  !
 ! D8    D(4,1,3,22)           -53.2858         calculate D2E/DX2 analytically  !
 ! D9    D(5,1,3,18)           -96.0809         calculate D2E/DX2 analytically  !
 ! D10   D(5,1,3,22)            29.8613         calculate D2E/DX2 analytically  !
 ! D11   D(6,1,3,18)           -93.7888         calculate D2E/DX2 analytically  !
 ! D12   D(6,1,3,22)            32.1534         calculate D2E/DX2 analytically  !
 ! D13   D(7,1,3,18)            84.5132         calculate D2E/DX2 analytically  !
 ! D14   D(7,1,3,22)          -149.5445         calculate D2E/DX2 analytically  !
 ! D15   D(3,1,4,9)            171.1099         calculate D2E/DX2 analytically  !
 ! D16   D(5,1,4,9)              7.8773         calculate D2E/DX2 analytically  !
 ! D17   D(6,1,4,9)             88.0657         calculate D2E/DX2 analytically  !
 ! D18   D(7,1,4,9)            -90.0741         calculate D2E/DX2 analytically  !
 ! D19   D(2,1,5,12)          -154.6063         calculate D2E/DX2 analytically  !
 ! D20   D(3,1,5,12)           -68.4113         calculate D2E/DX2 analytically  !
 ! D21   D(4,1,5,12)            14.4875         calculate D2E/DX2 analytically  !
 ! D22   D(6,1,5,12)           -70.7195         calculate D2E/DX2 analytically  !
 ! D23   D(7,1,5,12)           110.9962         calculate D2E/DX2 analytically  !
 ! D24   D(2,1,6,14)           120.5721         calculate D2E/DX2 analytically  !
 ! D25   D(2,1,6,21)          -130.3605         calculate D2E/DX2 analytically  !
 ! D26   D(3,1,6,14)          -149.4755         calculate D2E/DX2 analytically  !
 ! D27   D(3,1,6,21)           -40.4081         calculate D2E/DX2 analytically  !
 ! D28   D(4,1,6,14)           -60.7797         calculate D2E/DX2 analytically  !
 ! D29   D(4,1,6,21)            48.2878         calculate D2E/DX2 analytically  !
 ! D30   D(5,1,6,14)            29.8488         calculate D2E/DX2 analytically  !
 ! D31   D(5,1,6,21)           138.9162         calculate D2E/DX2 analytically  !
 ! D32   D(2,1,7,8)            -14.6257         calculate D2E/DX2 analytically  !
 ! D33   D(3,1,7,8)           -104.514          calculate D2E/DX2 analytically  !
 ! D34   D(4,1,7,8)            166.371          calculate D2E/DX2 analytically  !
 ! D35   D(5,1,7,8)             75.6603         calculate D2E/DX2 analytically  !
 ! D36   D(1,2,15,16)          149.7961         calculate D2E/DX2 analytically  !
 ! D37   D(1,2,15,17)          -89.9492         calculate D2E/DX2 analytically  !
 ! D38   D(1,2,15,18)           29.1867         calculate D2E/DX2 analytically  !
 ! D39   D(1,3,18,15)           27.1598         calculate D2E/DX2 analytically  !
 ! D40   D(1,3,18,19)          -92.1595         calculate D2E/DX2 analytically  !
 ! D41   D(1,3,18,20)          148.6299         calculate D2E/DX2 analytically  !
 ! D42   D(22,3,18,15)         -80.6995         calculate D2E/DX2 analytically  !
 ! D43   D(22,3,18,19)         159.9812         calculate D2E/DX2 analytically  !
 ! D44   D(22,3,18,20)          40.7706         calculate D2E/DX2 analytically  !
 ! D45   D(1,3,22,21)          -58.0997         calculate D2E/DX2 analytically  !
 ! D46   D(18,3,22,21)          60.8353         calculate D2E/DX2 analytically  !
 ! D47   D(1,4,9,10)            94.1015         calculate D2E/DX2 analytically  !
 ! D48   D(1,4,9,11)          -146.7189         calculate D2E/DX2 analytically  !
 ! D49   D(1,4,9,12)           -25.3234         calculate D2E/DX2 analytically  !
 ! D50   D(1,5,12,9)           -30.1199         calculate D2E/DX2 analytically  !
 ! D51   D(1,5,12,13)         -150.6531         calculate D2E/DX2 analytically  !
 ! D52   D(1,5,12,14)           88.7048         calculate D2E/DX2 analytically  !
 ! D53   D(1,6,14,12)           -1.9243         calculate D2E/DX2 analytically  !
 ! D54   D(21,6,14,12)        -116.9075         calculate D2E/DX2 analytically  !
 ! D55   D(1,6,21,22)           -1.5364         calculate D2E/DX2 analytically  !
 ! D56   D(1,6,21,23)         -122.5697         calculate D2E/DX2 analytically  !
 ! D57   D(1,6,21,24)          119.5373         calculate D2E/DX2 analytically  !
 ! D58   D(14,6,21,22)          85.8912         calculate D2E/DX2 analytically  !
 ! D59   D(14,6,21,23)         -35.1421         calculate D2E/DX2 analytically  !
 ! D60   D(14,6,21,24)        -153.0351         calculate D2E/DX2 analytically  !
 ! D61   D(4,9,12,5)            34.9895         calculate D2E/DX2 analytically  !
 ! D62   D(4,9,12,13)          155.6602         calculate D2E/DX2 analytically  !
 ! D63   D(4,9,12,14)          -84.5366         calculate D2E/DX2 analytically  !
 ! D64   D(10,9,12,5)          -85.4368         calculate D2E/DX2 analytically  !
 ! D65   D(10,9,12,13)          35.234          calculate D2E/DX2 analytically  !
 ! D66   D(10,9,12,14)         155.0371         calculate D2E/DX2 analytically  !
 ! D67   D(11,9,12,5)          156.2632         calculate D2E/DX2 analytically  !
 ! D68   D(11,9,12,13)         -83.0661         calculate D2E/DX2 analytically  !
 ! D69   D(11,9,12,14)          36.737          calculate D2E/DX2 analytically  !
 ! D70   D(5,12,14,6)          -38.2531         calculate D2E/DX2 analytically  !
 ! D71   D(9,12,14,6)           78.8132         calculate D2E/DX2 analytically  !
 ! D72   D(13,12,14,6)        -160.1857         calculate D2E/DX2 analytically  !
 ! D73   D(2,15,17,28)          32.7724         calculate D2E/DX2 analytically  !
 ! D74   D(16,15,17,28)        154.625          calculate D2E/DX2 analytically  !
 ! D75   D(18,15,17,28)        -84.5779         calculate D2E/DX2 analytically  !
 ! D76   D(2,15,18,3)          -35.5489         calculate D2E/DX2 analytically  !
 ! D77   D(2,15,18,19)          84.9229         calculate D2E/DX2 analytically  !
 ! D78   D(2,15,18,20)        -156.9999         calculate D2E/DX2 analytically  !
 ! D79   D(16,15,18,3)        -156.2443         calculate D2E/DX2 analytically  !
 ! D80   D(16,15,18,19)        -35.7725         calculate D2E/DX2 analytically  !
 ! D81   D(16,15,18,20)         82.3047         calculate D2E/DX2 analytically  !
 ! D82   D(17,15,18,3)          84.5364         calculate D2E/DX2 analytically  !
 ! D83   D(17,15,18,19)       -154.9918         calculate D2E/DX2 analytically  !
 ! D84   D(17,15,18,20)        -36.9147         calculate D2E/DX2 analytically  !
 ! D85   D(15,17,28,27)        145.5804         calculate D2E/DX2 analytically  !
 ! D86   D(6,21,22,3)           29.316          calculate D2E/DX2 analytically  !
 ! D87   D(23,21,22,3)         153.6823         calculate D2E/DX2 analytically  !
 ! D88   D(24,21,22,3)         -91.2744         calculate D2E/DX2 analytically  !
 ! D89   D(6,21,24,25)         155.2673         calculate D2E/DX2 analytically  !
 ! D90   D(6,21,24,26)         -84.4243         calculate D2E/DX2 analytically  !
 ! D91   D(6,21,24,27)          34.7243         calculate D2E/DX2 analytically  !
 ! D92   D(22,21,24,25)        -80.7882         calculate D2E/DX2 analytically  !
 ! D93   D(22,21,24,26)         39.5202         calculate D2E/DX2 analytically  !
 ! D94   D(22,21,24,27)        158.6688         calculate D2E/DX2 analytically  !
 ! D95   D(23,21,24,25)         33.9008         calculate D2E/DX2 analytically  !
 ! D96   D(23,21,24,26)        154.2093         calculate D2E/DX2 analytically  !
 ! D97   D(23,21,24,27)        -86.6421         calculate D2E/DX2 analytically  !
 ! D98   D(21,24,27,28)        -23.0216         calculate D2E/DX2 analytically  !
 ! D99   D(25,24,27,28)       -145.2454         calculate D2E/DX2 analytically  !
 ! D100  D(26,24,27,28)         95.4835         calculate D2E/DX2 analytically  !
 ! D101  D(24,27,28,17)        -79.7057         calculate D2E/DX2 analytically  !
 --------------------------------------------------------------------------------
 Trust Radius=3.00D-01 FncErr=1.00D-07 GrdErr=1.00D-06 EigMax=2.50D+02 EigMin=1.00D-04
 Number of steps in this run=    168 maximum allowed number of steps=    168.
 Search for a saddle point of order  1.
 GradGradGradGradGradGradGradGradGradGradGradGradGradGradGradGradGradGrad

                          Input orientation:                          
 ---------------------------------------------------------------------
 Center     Atomic      Atomic             Coordinates (Angstroms)
 Number     Number       Type             X           Y           Z
 ---------------------------------------------------------------------
      1         14           0        0.966341   -0.406926   -0.013958
      2          8           0        0.257898   -1.482157    1.197317
      3          8           0       -0.066532   -1.133533   -1.227575
      4          8           0        1.379084    0.819461   -1.181827
      5          8           0        1.583272    0.614669    1.268153
      6          8           0       -1.003931    0.952353    0.416177
      7          8           0        2.388718   -1.386044   -0.246290
      8          1           0        2.389416   -1.985970    0.496198
      9          6           0        2.105557    1.857857   -0.641253
     10          1           0        3.194380    1.688839   -0.768041
     11          1           0        1.860454    2.811371   -1.140841
     12          6           0        1.769404    1.916700    0.855532
     13          1           0        2.589137    2.396188    1.421199
     14          1           0        0.848865    2.503266    1.001677
     15          6           0       -0.881289   -2.115394    0.739946
     16          1           0       -0.998853   -3.106235    1.214695
     17          1           0       -1.779011   -1.519614    0.962257
     18          6           0       -0.723206   -2.255870   -0.779320
     19          1           0       -0.140936   -3.175020   -1.003399
     20          1           0       -1.705153   -2.362488   -1.271433
     21          6           0       -1.718029    1.379808   -0.655234
     22          1           0       -1.290117    1.070867   -1.623993
     23          1           0       -1.810702    2.498361   -0.691062
     24          6           0       -3.157227    0.809073   -0.534469
     25          1           0       -3.898320    1.417420   -1.075385
     26          1           0       -3.178737   -0.212242   -0.948678
     27          8           0       -3.470160    0.784088    0.840957
     28          1           0       -2.527250    0.768470    1.175703
 ---------------------------------------------------------------------
                    Distance matrix (angstroms):
                    1          2          3          4          5
     1  Si   0.000000
     2  O    1.767824   0.000000
     3  O    1.751471   2.471213   0.000000
     4  O    1.743072   3.494972   2.430244   0.000000
     5  O    1.751590   2.481595   3.465072   2.466989   0.000000
     6  O    2.432001   2.851181   2.816302   2.872288   2.744725
     7  O    1.742357   2.575584   2.656113   2.599777   2.635362
     8  H    2.186042   2.299731   3.119250   3.421547   2.830036
     9  C    2.611619   4.236730   3.743015   1.377770   2.337548
    10  H    3.150402   4.747713   4.337108   2.054832   2.809910
    11  H    3.525158   5.144857   4.391249   2.049659   3.271939
    12  C    2.607712   3.735465   4.124793   2.346724   1.378472
    13  H    3.542681   4.530602   5.150487   3.275063   2.051584
    14  H    3.084564   4.033747   4.362777   2.807850   2.043811
    15  C    2.626970   1.381276   2.344999   4.173233   3.715684
    16  H    3.557786   2.053620   3.274975   5.177740   4.529388
    17  H    3.118979   2.050769   2.806601   4.476822   3.994206
    18  C    2.618958   2.338438   1.375425   3.746905   4.213310
    19  H    3.141242   2.804996   2.055106   4.277637   4.742846
    20  H    3.541518   3.274642   2.048739   4.432307   5.111428
    21  C    3.287780   3.940441   3.061356   3.191144   3.896594
    22  H    3.141288   4.107806   2.552193   2.717232   4.102315
    23  H    4.075675   4.867197   4.064558   3.637896   4.348089
    24  C    4.330519   4.462275   3.715711   4.582281   5.075389
    25  H    5.302810   5.553996   4.605771   5.312238   6.015350
    26  H    4.253619   4.245991   3.257665   4.678942   5.317410
    27  O    4.672466   4.377359   4.420495   5.254339   5.074286
    28  H    3.873245   3.580899   3.930457   4.562893   4.114437
                    6          7          8          9         10
     6  O    0.000000
     7  O    4.173372   0.000000
     8  H    4.489426   0.954568   0.000000
     9  C    3.406906   3.280102   4.018629   0.000000
    10  H    4.423867   3.221214   3.968689   1.109134   0.000000
    11  H    3.752993   4.324069   5.096487   1.104017   1.782811
    12  C    2.968903   3.536337   3.967917   1.535196   2.172203
    13  H    4.000608   4.138353   4.483171   2.185717   2.378956
    14  H    2.486161   4.365238   4.773054   2.166806   3.049038
    15  C    3.087222   3.492500   3.282328   5.159039   5.775577
    16  H    4.136399   4.070525   3.640274   6.141996   6.671370
    17  H    2.647560   4.341473   4.220247   5.391514   6.166257
    18  C    3.435217   3.274872   3.374642   4.994368   5.559527
    19  H    4.449176   3.189482   3.172588   5.523380   5.902275
    20  H    3.785223   4.331760   4.475688   5.721009   6.377466
    21  C    1.356678   4.968153   5.433724   3.853380   4.923412
    22  H    2.063551   4.633390   5.232440   3.621565   4.607088
    23  H    2.065671   5.737731   6.257779   3.968603   5.070710
    24  C    2.358165   5.971523   6.296014   5.367331   6.416499
    25  H    3.289154   6.933517   7.320421   6.035644   7.104542
    26  H    2.819378   5.733037   6.019809   5.683624   6.653071
    27  O    2.508194   6.341769   6.490509   5.868436   6.915457
    28  H    1.712073   5.552543   5.676466   5.094212   6.112468
                   11         12         13         14         15
    11  H    0.000000
    12  C    2.189573   0.000000
    13  H    2.695812   1.105373   0.000000
    14  H    2.389273   1.101277   1.793324   0.000000
    15  C    5.943696   4.826729   5.732568   4.939024   0.000000
    16  H    6.981565   5.746488   6.572136   5.909817   1.104977
    17  H    6.035409   4.940738   5.884288   4.805294   1.100128
    18  C    5.699380   5.127981   6.120093   5.319091   1.533914
    19  H    6.313583   5.747229   6.661106   6.102702   2.170295
    20  H    6.284857   5.908297   6.952423   5.946898   2.187568
    21  C    3.884679   3.838340   4.888382   3.255220   3.855269
    22  H    3.631651   4.027921   5.106690   3.677112   3.988434
    23  H    3.711827   3.943024   4.881667   3.152568   4.919180
    24  C    5.436360   5.237426   6.274095   4.612896   3.918741
    25  H    5.925442   6.008395   7.019830   5.294243   4.987853
    26  H    5.879848   5.680816   6.759334   5.234448   3.428076
    27  O    6.037619   5.360602   6.296874   4.651385   3.888374
    28  H    5.365796   4.458944   5.374677   3.799731   3.348991
                   16         17         18         19         20
    16  H    0.000000
    17  H    1.785984   0.000000
    18  C    2.185223   2.165615   0.000000
    19  H    2.379221   3.047534   1.110894   0.000000
    20  H    2.689396   2.388569   1.103523   1.782926   0.000000
    21  C    4.913088   3.320639   3.771369   4.832691   3.792710
    22  H    5.058771   3.693007   3.478799   4.442219   3.476274
    23  H    5.975157   4.344950   4.877822   5.922240   4.896511
    24  C    4.800811   3.092321   3.921516   5.019054   3.565170
    25  H    5.840790   4.155674   4.864367   5.934107   4.374485
    26  H    4.219866   2.705573   3.199176   4.243735   2.626629
    27  O    4.624030   2.860374   4.405950   5.491805   4.180715
    28  H    4.165436   2.416764   4.027819   5.098440   4.057982
                   21         22         23         24         25
    21  C    0.000000
    22  H    1.103199   0.000000
    23  H    1.122957   1.783005   0.000000
    24  C    1.552937   2.177544   2.165951   0.000000
    25  H    2.220723   2.687711   2.382076   1.100861   0.000000
    26  H    2.180459   2.381030   3.047172   1.102323   1.785960
    27  O    2.379797   3.303151   2.835421   1.410797   2.063201
    28  H    2.093061   3.075750   2.644007   1.822967   2.714473
                   26         27         28
    26  H    0.000000
    27  O    2.068911   0.000000
    28  H    2.428832   1.000689   0.000000
 Stoichiometry    C6H14O7Si(2-)
 Framework group  C1[X(C6H14O7Si)]
 Deg. of freedom    78
 Full point group                 C1      NOp   1
 Largest Abelian subgroup         C1      NOp   1
 Largest concise Abelian subgroup C1      NOp   1
                         Standard orientation:                         
 ---------------------------------------------------------------------
 Center     Atomic      Atomic             Coordinates (Angstroms)
 Number     Number       Type             X           Y           Z
 ---------------------------------------------------------------------
      1         14           0       -0.966341    0.406926   -0.013958
      2          8           0       -0.257898    1.482157    1.197317
      3          8           0        0.066532    1.133533   -1.227575
      4          8           0       -1.379084   -0.819461   -1.181827
      5          8           0       -1.583272   -0.614669    1.268153
      6          8           0        1.003931   -0.952353    0.416177
      7          8           0       -2.388718    1.386044   -0.246290
      8          1           0       -2.389416    1.985970    0.496198
      9          6           0       -2.105557   -1.857857   -0.641253
     10          1           0       -3.194380   -1.688839   -0.768041
     11          1           0       -1.860454   -2.811371   -1.140841
     12          6           0       -1.769404   -1.916700    0.855532
     13          1           0       -2.589137   -2.396188    1.421199
     14          1           0       -0.848865   -2.503266    1.001677
     15          6           0        0.881289    2.115394    0.739946
     16          1           0        0.998853    3.106235    1.214695
     17          1           0        1.779011    1.519614    0.962257
     18          6           0        0.723206    2.255870   -0.779320
     19          1           0        0.140936    3.175020   -1.003399
     20          1           0        1.705153    2.362488   -1.271433
     21          6           0        1.718029   -1.379808   -0.655234
     22          1           0        1.290117   -1.070867   -1.623993
     23          1           0        1.810702   -2.498361   -0.691062
     24          6           0        3.157227   -0.809073   -0.534469
     25          1           0        3.898320   -1.417420   -1.075385
     26          1           0        3.178737    0.212242   -0.948678
     27          8           0        3.470160   -0.784088    0.840957
     28          1           0        2.527250   -0.768470    1.175703
 ---------------------------------------------------------------------
 Rotational constants (GHZ):           0.8557404           0.5655202           0.4363548
 Standard basis: def2TZVPP (5D, 7F)
 There are   726 symmetry adapted cartesian basis functions of A   symmetry.
 There are   641 symmetry adapted basis functions of A   symmetry.
   641 basis functions,   970 primitive gaussians,   726 cartesian basis functions
    61 alpha electrons       61 beta electrons
       nuclear repulsion energy      1251.1727066673 Hartrees.
 NAtoms=   28 NActive=   28 NUniq=   28 SFac= 1.00D+00 NAtFMM=   60 NAOKFM=F Big=F
 Integral buffers will be    131072 words long.
 Raffenetti 2 integral format.
 Two-electron integral symmetry is turned on.
 Nuclear repulsion after empirical dispersion term =     1251.1525992220 Hartrees.
 One-electron integrals computed using PRISM.
   1 Symmetry operations used in ECPInt.
 ECPInt:  NShTT=   29161 NPrTT=   80163 LenC2=   27163 LenP2D=   56542.
 LDataN:  DoStor=T MaxTD1= 6 Len=  172
 NBasis=   641 RedAO= T EigKep=  2.14D-04  NBF=   641
 NBsUse=   641 1.00D-06 EigRej= -1.00D+00 NBFU=   641
 ExpMin= 7.01D-02 ExpMax= 4.48D+04 ExpMxC= 1.53D+03 IAcc=3 IRadAn=         5 AccDes= 0.00D+00
 Harris functional with IExCor= 4639 and IRadAn=       5 diagonalized for initial guess.
 HarFok:  IExCor= 4639 AccDes= 0.00D+00 IRadAn=         5 IDoV= 1 UseB2=F ITyADJ=14
 ICtDFT=  3500011 ScaDFX=  1.000000  1.000000  1.000000  1.000000
 FoFCou: FMM=F IPFlag=           0 FMFlag=      100000 FMFlg1=           0
         NFxFlg=           0 DoJE=T BraDBF=F KetDBF=T FulRan=T
         wScrn=  0.000000 ICntrl=       500 IOpCl=  0 I1Cent=   200000004 NGrid=           0
         NMat0=    1 NMatS0=      1 NMatT0=    0 NMatD0=    1 NMtDS0=    0 NMtDT0=    0
 Petite list used in FoFCou.
 Requested convergence on RMS density matrix=1.00D-08 within 128 cycles.
 Requested convergence on MAX density matrix=1.00D-06.
 Requested convergence on             energy=1.00D-06.
 No special actions if energy rises.
 Integral accuracy reduced to 1.0D-05 until final iterations.
 Initial convergence to 1.0D-05 achieved.  Increase integral accuracy.
 SCF Done:  E(RwB97XD) =  -1053.33029560     A.U. after   16 cycles
            NFock= 16  Conv=0.38D-08     -V/T= 2.0037
 DoSCS=F DFT=T ScalE2(SS,OS)=  1.000000  1.000000
 Range of M.O.s used for correlation:     1   641
 NBasis=   641 NAE=    61 NBE=    61 NFC=     0 NFV=     0
 NROrb=    641 NOA=    61 NOB=    61 NVA=   580 NVB=   580

 **** Warning!!: The largest alpha MO coefficient is  0.13529380D+02

   1 Symmetry operations used in ECPInt.
 ECPInt:  NShTT=   29161 NPrTT=   80163 LenC2=   27163 LenP2D=   56542.
 LDataN:  DoStor=T MaxTD1= 7 Len=  274
 Number of processors reduced to   2 by ecpmxn.
 Symmetrizing basis deriv contribution to polar:
 IMax=3 JMax=2 DiffMx= 0.00D+00
 G2DrvN: will do    29 centers at a time, making    1 passes.
 Calling FoFCou, ICntrl=  3107 FMM=F I1Cent=   0 AccDes= 0.00D+00.
 End of G2Drv F.D. properties file   721 does not exist.
 End of G2Drv F.D. properties file   722 does not exist.
 End of G2Drv F.D. properties file   788 does not exist.
          IDoAtm=1111111111111111111111111111
          Differentiating once with respect to electric field.
                with respect to dipole field.
          Differentiating once with respect to nuclear coordinates.
 CalDSu exits because no D1Ps are significant.
          There are    87 degrees of freedom in the 1st order CPHF.  IDoFFX=6 NUNeed=     3.
     84 vectors produced by pass  0 Test12= 4.07D-14 1.15D-09 XBig12= 5.17D+01 9.03D-01.
 AX will form    44 AO Fock derivatives at one time.
     84 vectors produced by pass  1 Test12= 4.07D-14 1.15D-09 XBig12= 5.42D+00 2.34D-01.
     84 vectors produced by pass  2 Test12= 4.07D-14 1.15D-09 XBig12= 9.87D-02 2.82D-02.
     84 vectors produced by pass  3 Test12= 4.07D-14 1.15D-09 XBig12= 1.33D-03 4.61D-03.
     84 vectors produced by pass  4 Test12= 4.07D-14 1.15D-09 XBig12= 1.36D-05 3.97D-04.
     84 vectors produced by pass  5 Test12= 4.07D-14 1.15D-09 XBig12= 1.16D-07 3.74D-05.
     84 vectors produced by pass  6 Test12= 4.07D-14 1.15D-09 XBig12= 8.95D-10 2.77D-06.
     42 vectors produced by pass  7 Test12= 4.07D-14 1.15D-09 XBig12= 6.22D-12 1.73D-07.
      3 vectors produced by pass  8 Test12= 4.07D-14 1.15D-09 XBig12= 4.01D-14 1.86D-08.
      2 vectors produced by pass  9 Test12= 4.07D-14 1.15D-09 XBig12= 3.51D-16 1.88D-09.
 InvSVY:  IOpt=1 It=  1 EMax= 2.72D-15
 Solved reduced A of dimension   635 with    87 vectors.
 Isotropic polarizability for W=    0.000000      135.18 Bohr**3.
 End of Minotr F.D. properties file   721 does not exist.
 End of Minotr F.D. properties file   722 does not exist.
 End of Minotr F.D. properties file   788 does not exist.

 **********************************************************************

            Population analysis using the SCF Density.

 **********************************************************************

 Orbital symmetries:
       Occupied  (A) (A) (A) (A) (A) (A) (A) (A) (A) (A) (A) (A)
                 (A) (A) (A) (A) (A) (A) (A) (A) (A) (A) (A) (A)
                 (A) (A) (A) (A) (A) (A) (A) (A) (A) (A) (A) (A)
                 (A) (A) (A) (A) (A) (A) (A) (A) (A) (A) (A) (A)
                 (A) (A) (A) (A) (A) (A) (A) (A) (A) (A) (A) (A)
                 (A)
       Virtual   (A) (A) (A) (A) (A) (A) (A) (A) (A) (A) (A) (A)
                 (A) (A) (A) (A) (A) (A) (A) (A) (A) (A) (A) (A)
                 (A) (A) (A) (A) (A) (A) (A) (A) (A) (A) (A) (A)
                 (A) (A) (A) (A) (A) (A) (A) (A) (A) (A) (A) (A)
                 (A) (A) (A) (A) (A) (A) (A) (A) (A) (A) (A) (A)
                 (A) (A) (A) (A) (A) (A) (A) (A) (A) (A) (A) (A)
                 (A) (A) (A) (A) (A) (A) (A) (A) (A) (A) (A) (A)
                 (A) (A) (A) (A) (A) (A) (A) (A) (A) (A) (A) (A)
                 (A) (A) (A) (A) (A) (A) (A) (A) (A) (A) (A) (A)
                 (A) (A) (A) (A) (A) (A) (A) (A) (A) (A) (A) (A)
                 (A) (A) (A) (A) (A) (A) (A) (A) (A) (A) (A) (A)
                 (A) (A) (A) (A) (A) (A) (A) (A) (A) (A) (A) (A)
                 (A) (A) (A) (A) (A) (A) (A) (A) (A) (A) (A) (A)
                 (A) (A) (A) (A) (A) (A) (A) (A) (A) (A) (A) (A)
                 (A) (A) (A) (A) (A) (A) (A) (A) (A) (A) (A) (A)
                 (A) (A) (A) (A) (A) (A) (A) (A) (A) (A) (A) (A)
                 (A) (A) (A) (A) (A) (A) (A) (A) (A) (A) (A) (A)
                 (A) (A) (A) (A) (A) (A) (A) (A) (A) (A) (A) (A)
                 (A) (A) (A) (A) (A) (A) (A) (A) (A) (A) (A) (A)
                 (A) (A) (A) (A) (A) (A) (A) (A) (A) (A) (A) (A)
                 (A) (A) (A) (A) (A) (A) (A) (A) (A) (A) (A) (A)
                 (A) (A) (A) (A) (A) (A) (A) (A) (A) (A) (A) (A)
                 (A) (A) (A) (A) (A) (A) (A) (A) (A) (A) (A) (A)
                 (A) (A) (A) (A) (A) (A) (A) (A) (A) (A) (A) (A)
                 (A) (A) (A) (A) (A) (A) (A) (A) (A) (A) (A) (A)
                 (A) (A) (A) (A) (A) (A) (A) (A) (A) (A) (A) (A)
                 (A) (A) (A) (A) (A) (A) (A) (A) (A) (A) (A) (A)
                 (A) (A) (A) (A) (A) (A) (A) (A) (A) (A) (A) (A)
                 (A) (A) (A) (A) (A) (A) (A) (A) (A) (A) (A) (A)
                 (A) (A) (A) (A) (A) (A) (A) (A) (A) (A) (A) (A)
                 (A) (A) (A) (A) (A) (A) (A) (A) (A) (A) (A) (A)
                 (A) (A) (A) (A) (A) (A) (A) (A) (A) (A) (A) (A)
                 (A) (A) (A) (A) (A) (A) (A) (A) (A) (A) (A) (A)
                 (A) (A) (A) (A) (A) (A) (A) (A) (A) (A) (A) (A)
                 (A) (A) (A) (A) (A) (A) (A) (A) (A) (A) (A) (A)
                 (A) (A) (A) (A) (A) (A) (A) (A) (A) (A) (A) (A)
                 (A) (A) (A) (A) (A) (A) (A) (A) (A) (A) (A) (A)
                 (A) (A) (A) (A) (A) (A) (A) (A) (A) (A) (A) (A)
                 (A) (A) (A) (A) (A) (A) (A) (A) (A) (A) (A) (A)
                 (A) (A) (A) (A) (A) (A) (A) (A) (A) (A) (A) (A)
                 (A) (A) (A) (A) (A) (A) (A) (A) (A) (A) (A) (A)
                 (A) (A) (A) (A) (A) (A) (A) (A) (A) (A) (A) (A)
                 (A) (A) (A) (A) (A) (A) (A) (A) (A) (A) (A) (A)
                 (A) (A) (A) (A) (A) (A) (A) (A) (A) (A) (A) (A)
                 (A) (A) (A) (A) (A) (A) (A) (A) (A) (A) (A) (A)
                 (A) (A) (A) (A) (A) (A) (A) (A) (A) (A) (A) (A)
                 (A) (A) (A) (A) (A) (A) (A) (A) (A) (A) (A) (A)
                 (A) (A) (A) (A) (A) (A) (A) (A) (A) (A) (A) (A)
                 (A) (A) (A) (A)
 The electronic state is 1-A.
 Alpha  occ. eigenvalues --  -65.99307 -18.95109 -18.91304 -18.91303 -18.91203
 Alpha  occ. eigenvalues --  -18.90747 -18.90399 -18.85917 -10.04357 -10.04268
 Alpha  occ. eigenvalues --  -10.04265 -10.03725 -10.03445 -10.01364  -5.10037
 Alpha  occ. eigenvalues --   -3.44702  -3.44566  -3.44463  -0.83645  -0.83301
 Alpha  occ. eigenvalues --   -0.81288  -0.77125  -0.75713  -0.75281  -0.72517
 Alpha  occ. eigenvalues --   -0.53384  -0.51414  -0.51137  -0.41479  -0.39232
 Alpha  occ. eigenvalues --   -0.38525  -0.32642  -0.30021  -0.29589  -0.28082
 Alpha  occ. eigenvalues --   -0.27769  -0.27540  -0.26338  -0.24341  -0.24240
 Alpha  occ. eigenvalues --   -0.22699  -0.21523  -0.20094  -0.19481  -0.18379
 Alpha  occ. eigenvalues --   -0.16874  -0.15335  -0.13433  -0.12363  -0.10107
 Alpha  occ. eigenvalues --   -0.09536  -0.09301  -0.07862  -0.07711  -0.07188
 Alpha  occ. eigenvalues --   -0.06166  -0.04382  -0.03531  -0.02057  -0.00518
 Alpha  occ. eigenvalues --    0.01030
 Alpha virt. eigenvalues --    0.36016   0.36500   0.37483   0.38991   0.39567
 Alpha virt. eigenvalues --    0.40218   0.40840   0.41248   0.42796   0.43530
 Alpha virt. eigenvalues --    0.44698   0.45863   0.46687   0.47710   0.48357
 Alpha virt. eigenvalues --    0.49299   0.50193   0.51522   0.52178   0.52242
 Alpha virt. eigenvalues --    0.52775   0.54116   0.54503   0.55576   0.55996
 Alpha virt. eigenvalues --    0.56796   0.57374   0.58392   0.59174   0.62098
 Alpha virt. eigenvalues --    0.62852   0.64491   0.64749   0.65539   0.66809
 Alpha virt. eigenvalues --    0.68464   0.68630   0.69280   0.69771   0.70123
 Alpha virt. eigenvalues --    0.70324   0.71605   0.72623   0.72935   0.73861
 Alpha virt. eigenvalues --    0.74190   0.74585   0.74767   0.75421   0.76157
 Alpha virt. eigenvalues --    0.76654   0.77389   0.77500   0.78322   0.78394
 Alpha virt. eigenvalues --    0.78806   0.80041   0.80186   0.80858   0.81605
 Alpha virt. eigenvalues --    0.81903   0.82248   0.82294   0.84732   0.85597
 Alpha virt. eigenvalues --    0.86037   0.86692   0.87444   0.88572   0.89082
 Alpha virt. eigenvalues --    0.89811   0.90954   0.91808   0.92475   0.93647
 Alpha virt. eigenvalues --    0.94832   0.95663   0.96117   0.97420   0.99331
 Alpha virt. eigenvalues --    0.99468   0.99825   1.02411   1.04006   1.04474
 Alpha virt. eigenvalues --    1.05471   1.06660   1.07707   1.08369   1.08825
 Alpha virt. eigenvalues --    1.10448   1.11040   1.12259   1.13810   1.14702
 Alpha virt. eigenvalues --    1.15746   1.16233   1.16909   1.18578   1.19675
 Alpha virt. eigenvalues --    1.19794   1.20404   1.21529   1.22188   1.23720
 Alpha virt. eigenvalues --    1.24510   1.25080   1.25788   1.28188   1.29661
 Alpha virt. eigenvalues --    1.30258   1.30877   1.32104   1.32852   1.33451
 Alpha virt. eigenvalues --    1.33867   1.34749   1.34994   1.36276   1.36744
 Alpha virt. eigenvalues --    1.37217   1.38664   1.40828   1.41239   1.41956
 Alpha virt. eigenvalues --    1.43202   1.43595   1.44174   1.45037   1.45871
 Alpha virt. eigenvalues --    1.46578   1.47749   1.48336   1.49121   1.49965
 Alpha virt. eigenvalues --    1.50539   1.51503   1.52342   1.53101   1.54203
 Alpha virt. eigenvalues --    1.54824   1.56249   1.56849   1.57734   1.58817
 Alpha virt. eigenvalues --    1.59781   1.59922   1.61552   1.62423   1.62991
 Alpha virt. eigenvalues --    1.64414   1.64988   1.66472   1.67565   1.68049
 Alpha virt. eigenvalues --    1.69260   1.69679   1.70437   1.71931   1.72771
 Alpha virt. eigenvalues --    1.72810   1.74169   1.75264   1.75693   1.76118
 Alpha virt. eigenvalues --    1.78240   1.78481   1.78740   1.79580   1.81076
 Alpha virt. eigenvalues --    1.82127   1.83169   1.84407   1.84857   1.87241
 Alpha virt. eigenvalues --    1.87517   1.88533   1.89011   1.89382   1.91994
 Alpha virt. eigenvalues --    1.92333   1.93739   1.94361   1.95644   1.97389
 Alpha virt. eigenvalues --    1.98166   2.00335   2.01825   2.04465   2.05188
 Alpha virt. eigenvalues --    2.05964   2.08414   2.10920   2.14038   2.16427
 Alpha virt. eigenvalues --    2.18234   2.22248   2.22878   2.24074   2.26941
 Alpha virt. eigenvalues --    2.27625   2.28605   2.29078   2.29547   2.31403
 Alpha virt. eigenvalues --    2.33674   2.34463   2.36125   2.36786   2.38832
 Alpha virt. eigenvalues --    2.40085   2.40790   2.42267   2.43245   2.45126
 Alpha virt. eigenvalues --    2.45577   2.46578   2.48622   2.49034   2.49724
 Alpha virt. eigenvalues --    2.50915   2.53154   2.54571   2.56299   2.58024
 Alpha virt. eigenvalues --    2.59173   2.60711   2.61617   2.63553   2.64734
 Alpha virt. eigenvalues --    2.66609   2.69671   2.70138   2.70564   2.72933
 Alpha virt. eigenvalues --    2.74263   2.76090   2.76489   2.76856   2.80844
 Alpha virt. eigenvalues --    2.82289   2.84497   2.85489   2.86085   2.90524
 Alpha virt. eigenvalues --    2.91663   2.94051   2.96457   2.97630   2.97981
 Alpha virt. eigenvalues --    2.99269   3.00027   3.00676   3.01409   3.02345
 Alpha virt. eigenvalues --    3.03379   3.04566   3.05568   3.07835   3.08944
 Alpha virt. eigenvalues --    3.10474   3.12216   3.12399   3.14858   3.16408
 Alpha virt. eigenvalues --    3.16619   3.17024   3.18678   3.20579   3.20822
 Alpha virt. eigenvalues --    3.21651   3.23177   3.24712   3.25273   3.27764
 Alpha virt. eigenvalues --    3.28087   3.29222   3.30321   3.31374   3.33150
 Alpha virt. eigenvalues --    3.33721   3.34963   3.35685   3.36686   3.36949
 Alpha virt. eigenvalues --    3.38523   3.38696   3.39376   3.41184   3.41482
 Alpha virt. eigenvalues --    3.42312   3.42964   3.44215   3.47109   3.47454
 Alpha virt. eigenvalues --    3.47875   3.48147   3.49934   3.50503   3.51206
 Alpha virt. eigenvalues --    3.51789   3.53294   3.53509   3.54817   3.56133
 Alpha virt. eigenvalues --    3.57318   3.58089   3.58934   3.59774   3.61749
 Alpha virt. eigenvalues --    3.61913   3.63091   3.63559   3.65727   3.66526
 Alpha virt. eigenvalues --    3.68092   3.69658   3.70264   3.72887   3.74020
 Alpha virt. eigenvalues --    3.74453   3.75942   3.77037   3.78374   3.79278
 Alpha virt. eigenvalues --    3.80916   3.82763   3.83495   3.85184   3.85877
 Alpha virt. eigenvalues --    3.86961   3.88958   3.89686   3.91222   3.92156
 Alpha virt. eigenvalues --    3.93051   3.93720   3.94028   3.95516   3.95926
 Alpha virt. eigenvalues --    3.96671   3.99467   4.00692   4.02516   4.02690
 Alpha virt. eigenvalues --    4.03819   4.05066   4.05685   4.06491   4.07497
 Alpha virt. eigenvalues --    4.08837   4.09076   4.10257   4.10639   4.10741
 Alpha virt. eigenvalues --    4.11984   4.13168   4.13348   4.14953   4.16186
 Alpha virt. eigenvalues --    4.17536   4.18028   4.18581   4.20883   4.21471
 Alpha virt. eigenvalues --    4.22407   4.26180   4.26375   4.27119   4.29321
 Alpha virt. eigenvalues --    4.31257   4.31772   4.32416   4.33863   4.35600
 Alpha virt. eigenvalues --    4.37028   4.37768   4.38842   4.39273   4.41493
 Alpha virt. eigenvalues --    4.42947   4.42973   4.44141   4.44980   4.46412
 Alpha virt. eigenvalues --    4.47556   4.49801   4.49999   4.51166   4.53223
 Alpha virt. eigenvalues --    4.54368   4.54729   4.55659   4.56130   4.56872
 Alpha virt. eigenvalues --    4.59117   4.60071   4.60411   4.62223   4.63598
 Alpha virt. eigenvalues --    4.65379   4.66635   4.67706   4.68529   4.69072
 Alpha virt. eigenvalues --    4.69698   4.70734   4.72062   4.73650   4.74817
 Alpha virt. eigenvalues --    4.75746   4.77541   4.79048   4.84392   4.88411
 Alpha virt. eigenvalues --    4.89845   4.91617   4.92714   4.94016   4.95128
 Alpha virt. eigenvalues --    4.95387   4.96273   4.97659   4.98867   5.01228
 Alpha virt. eigenvalues --    5.03582   5.04044   5.07304   5.08130   5.10467
 Alpha virt. eigenvalues --    5.11801   5.13623   5.14399   5.15954   5.16635
 Alpha virt. eigenvalues --    5.17554   5.18895   5.20286   5.21988   5.23427
 Alpha virt. eigenvalues --    5.24826   5.26207   5.28586   5.28760   5.29867
 Alpha virt. eigenvalues --    5.30283   5.31996   5.32288   5.33915   5.37290
 Alpha virt. eigenvalues --    5.39949   5.42175   5.43069   5.44963   5.45921
 Alpha virt. eigenvalues --    5.46326   5.48138   5.49445   5.51088   5.52151
 Alpha virt. eigenvalues --    5.53876   5.55973   5.56802   5.59512   5.61290
 Alpha virt. eigenvalues --    5.63964   5.65574   5.66272   5.68352   5.69210
 Alpha virt. eigenvalues --    5.69601   5.70895   5.71974   5.75375   5.78715
 Alpha virt. eigenvalues --    5.79347   5.80705   5.82920   5.84819   5.85259
 Alpha virt. eigenvalues --    5.85836   5.87121   5.88547   5.90563   5.90896
 Alpha virt. eigenvalues --    5.92616   5.93594   5.94177   5.94903   5.97299
 Alpha virt. eigenvalues --    5.97836   6.00166   6.00940   6.01752   6.03522
 Alpha virt. eigenvalues --    6.05042   6.06220   6.07966   6.09709   6.10975
 Alpha virt. eigenvalues --    6.11854   6.13917   6.21694   6.26814   6.30981
 Alpha virt. eigenvalues --    6.37768   6.38657   6.38805   6.41400   6.42528
 Alpha virt. eigenvalues --    6.47181   6.48738   6.49386   6.52400   6.53516
 Alpha virt. eigenvalues --    6.55059   6.56323   6.58473   6.65271   6.67323
 Alpha virt. eigenvalues --    6.69496   6.73413   6.78245   6.89303   6.93759
 Alpha virt. eigenvalues --    6.95516   6.99239   7.00075   7.01585   7.05105
 Alpha virt. eigenvalues --    7.07741   7.09031   7.09213   7.11961   7.13259
 Alpha virt. eigenvalues --    7.14866   7.17963   7.19371   7.21998   7.23758
 Alpha virt. eigenvalues --    7.24125   7.29007   7.29510   7.32356   7.36863
 Alpha virt. eigenvalues --    7.39683   7.41586   7.44881   7.47615   7.49692
 Alpha virt. eigenvalues --    7.50947   7.52542   7.53906   7.56787   7.62474
 Alpha virt. eigenvalues --    7.63311   7.65291   7.66450   7.70553   7.77709
 Alpha virt. eigenvalues --    7.78974   7.85302   7.88989   7.92960   7.97134
 Alpha virt. eigenvalues --    8.04486  12.35914  23.64772  23.68810  23.70678
 Alpha virt. eigenvalues --   23.81380  23.82818  23.86592  44.26476  44.37732
 Alpha virt. eigenvalues --   44.54736  44.56996  44.62681  44.71468  44.80113
          Condensed to atoms (all electrons):
               1          2          3          4          5          6
     1  Si  11.528714   0.326350   0.333975   0.346718   0.359958   0.085260
     2  O    0.326350   8.139464  -0.025351   0.006610  -0.048033  -0.022692
     3  O    0.333975  -0.025351   8.075384  -0.047240   0.003099  -0.018088
     4  O    0.346718   0.006610  -0.047240   8.072710  -0.032337  -0.010455
     5  O    0.359958  -0.048033   0.003099  -0.032337   8.064915  -0.027779
     6  O    0.085260  -0.022692  -0.018088  -0.010455  -0.027779   8.454046
     7  O    0.479745  -0.068838  -0.046918  -0.037572  -0.050934   0.000400
     8  H   -0.063477   0.011158   0.001207   0.004652  -0.000602   0.000050
     9  C   -0.082499  -0.002331   0.000119   0.366989  -0.112556   0.002093
    10  H    0.006825  -0.000095   0.000478  -0.061241   0.011670  -0.000135
    11  H   -0.004172   0.000102  -0.000070  -0.048252   0.007747  -0.000968
    12  C   -0.032527   0.000703  -0.001200  -0.105491   0.384482  -0.003452
    13  H   -0.012992  -0.000319  -0.000037   0.006226  -0.046402   0.001505
    14  H   -0.007334   0.001192   0.000782   0.010845  -0.054469   0.025305
    15  C   -0.059690   0.362230  -0.104147  -0.000759   0.000849   0.036833
    16  H   -0.015467  -0.045885   0.005602  -0.000005  -0.000490   0.001550
    17  H    0.001393  -0.054242   0.011691   0.000254   0.000902  -0.001153
    18  C   -0.039922  -0.109989   0.372531   0.002747  -0.002633  -0.007396
    19  H   -0.000462   0.012811  -0.062481   0.000656   0.000012  -0.000584
    20  H   -0.002664   0.008328  -0.053910  -0.000001   0.000119   0.000175
    21  C   -0.037185   0.003889  -0.007003  -0.006677   0.000773   0.347250
    22  H   -0.009973   0.000709   0.013987   0.010116   0.000583  -0.073984
    23  H    0.005158  -0.000304   0.000314   0.000125  -0.000608  -0.056260
    24  C    0.004284  -0.001427   0.001067   0.001575  -0.000165  -0.113396
    25  H    0.000262  -0.000016  -0.000051   0.000006   0.000006   0.008068
    26  H   -0.002382  -0.000328  -0.000005  -0.000001   0.000007   0.008746
    27  O    0.000102   0.000053  -0.000151  -0.000027  -0.000029  -0.063534
    28  H    0.000521   0.001654  -0.000146   0.000177   0.000195   0.115798
               7          8          9         10         11         12
     1  Si   0.479745  -0.063477  -0.082499   0.006825  -0.004172  -0.032527
     2  O   -0.068838   0.011158  -0.002331  -0.000095   0.000102   0.000703
     3  O   -0.046918   0.001207   0.000119   0.000478  -0.000070  -0.001200
     4  O   -0.037572   0.004652   0.366989  -0.061241  -0.048252  -0.105491
     5  O   -0.050934  -0.000602  -0.112556   0.011670   0.007747   0.384482
     6  O    0.000400   0.000050   0.002093  -0.000135  -0.000968  -0.003452
     7  O    7.963767   0.305181  -0.007480   0.006059  -0.000776  -0.007527
     8  H    0.305181   0.620655  -0.000418  -0.000762   0.000103   0.000167
     9  C   -0.007480  -0.000418   4.909544   0.348036   0.332872   0.200892
    10  H    0.006059  -0.000762   0.348036   0.880350  -0.114042  -0.044886
    11  H   -0.000776   0.000103   0.332872  -0.114042   0.869317  -0.011350
    12  C   -0.007527   0.000167   0.200892  -0.044886  -0.011350   4.828541
    13  H   -0.000123   0.000040   0.016932  -0.030753   0.016274   0.284610
    14  H   -0.000425  -0.000086  -0.082840   0.020227  -0.019143   0.415643
    15  C   -0.008743   0.002106  -0.002491  -0.000049   0.000095   0.002689
    16  H    0.000016  -0.000561  -0.000090   0.000002  -0.000000  -0.000061
    17  H   -0.000539   0.000531   0.000322  -0.000005   0.000001   0.000361
    18  C   -0.008965  -0.002763  -0.001919   0.000274  -0.000028  -0.001650
    19  H    0.009063   0.001402   0.000390  -0.000027   0.000002  -0.000102
    20  H   -0.000492   0.000098  -0.000033   0.000000  -0.000002   0.000072
    21  C   -0.000292  -0.000050   0.002894  -0.000139   0.001738  -0.009010
    22  H    0.000198  -0.000052   0.000795   0.000263  -0.001723  -0.004316
    23  H    0.000003   0.000004  -0.004760   0.000084   0.001206   0.009096
    24  C    0.000005  -0.000003   0.000557   0.000037  -0.000391   0.000805
    25  H    0.000000   0.000000  -0.000034   0.000000   0.000005   0.000061
    26  H   -0.000002   0.000000  -0.000032  -0.000000   0.000011  -0.000006
    27  O    0.000000   0.000001  -0.000010  -0.000000   0.000005   0.000072
    28  H    0.000001  -0.000010  -0.000012   0.000004   0.000012  -0.000935
              13         14         15         16         17         18
     1  Si  -0.012992  -0.007334  -0.059690  -0.015467   0.001393  -0.039922
     2  O   -0.000319   0.001192   0.362230  -0.045885  -0.054242  -0.109989
     3  O   -0.000037   0.000782  -0.104147   0.005602   0.011691   0.372531
     4  O    0.006226   0.010845  -0.000759  -0.000005   0.000254   0.002747
     5  O   -0.046402  -0.054469   0.000849  -0.000490   0.000902  -0.002633
     6  O    0.001505   0.025305   0.036833   0.001550  -0.001153  -0.007396
     7  O   -0.000123  -0.000425  -0.008743   0.000016  -0.000539  -0.008965
     8  H    0.000040  -0.000086   0.002106  -0.000561   0.000531  -0.002763
     9  C    0.016932  -0.082840  -0.002491  -0.000090   0.000322  -0.001919
    10  H   -0.030753   0.020227  -0.000049   0.000002  -0.000005   0.000274
    11  H    0.016274  -0.019143   0.000095  -0.000000   0.000001  -0.000028
    12  C    0.284610   0.415643   0.002689  -0.000061   0.000361  -0.001650
    13  H    0.903912  -0.099403  -0.000140  -0.000010   0.000022  -0.000050
    14  H   -0.099403   0.783776  -0.000203   0.000010  -0.000124   0.000425
    15  C   -0.000140  -0.000203   4.860773   0.304251   0.390569   0.217437
    16  H   -0.000010   0.000010   0.304251   0.888735  -0.095378   0.008710
    17  H    0.000022  -0.000124   0.390569  -0.095378   0.798256  -0.078067
    18  C   -0.000050   0.000425   0.217437   0.008710  -0.078067   4.868757
    19  H    0.000002   0.000005  -0.047071  -0.029513   0.020719   0.335101
    20  H   -0.000000  -0.000003  -0.025691   0.016043  -0.018545   0.353282
    21  C    0.000670   0.002009  -0.010345   0.000537   0.000245   0.002325
    22  H    0.000021   0.003117   0.000553  -0.000128  -0.001501  -0.001602
    23  H   -0.000468  -0.007324   0.002529   0.000036  -0.000583  -0.000821
    24  C    0.000008   0.000275  -0.001262  -0.001008   0.009848   0.000677
    25  H   -0.000001  -0.000096  -0.000756   0.000015   0.001472   0.000415
    26  H   -0.000002  -0.000086   0.019509   0.000297  -0.019686  -0.011699
    27  O   -0.000001  -0.000162  -0.014649   0.000199   0.023336   0.002442
    28  H    0.000000   0.000883   0.002572   0.000497  -0.009614   0.000396
              19         20         21         22         23         24
     1  Si  -0.000462  -0.002664  -0.037185  -0.009973   0.005158   0.004284
     2  O    0.012811   0.008328   0.003889   0.000709  -0.000304  -0.001427
     3  O   -0.062481  -0.053910  -0.007003   0.013987   0.000314   0.001067
     4  O    0.000656  -0.000001  -0.006677   0.010116   0.000125   0.001575
     5  O    0.000012   0.000119   0.000773   0.000583  -0.000608  -0.000165
     6  O   -0.000584   0.000175   0.347250  -0.073984  -0.056260  -0.113396
     7  O    0.009063  -0.000492  -0.000292   0.000198   0.000003   0.000005
     8  H    0.001402   0.000098  -0.000050  -0.000052   0.000004  -0.000003
     9  C    0.000390  -0.000033   0.002894   0.000795  -0.004760   0.000557
    10  H   -0.000027   0.000000  -0.000139   0.000263   0.000084   0.000037
    11  H    0.000002  -0.000002   0.001738  -0.001723   0.001206  -0.000391
    12  C   -0.000102   0.000072  -0.009010  -0.004316   0.009096   0.000805
    13  H    0.000002  -0.000000   0.000670   0.000021  -0.000468   0.000008
    14  H    0.000005  -0.000003   0.002009   0.003117  -0.007324   0.000275
    15  C   -0.047071  -0.025691  -0.010345   0.000553   0.002529  -0.001262
    16  H   -0.029513   0.016043   0.000537  -0.000128   0.000036  -0.001008
    17  H    0.020719  -0.018545   0.000245  -0.001501  -0.000583   0.009848
    18  C    0.335101   0.353282   0.002325  -0.001602  -0.000821   0.000677
    19  H    0.893653  -0.105689  -0.000210   0.000685   0.000000   0.000318
    20  H   -0.105689   0.846287   0.004070  -0.001644  -0.000046  -0.002249
    21  C   -0.000210   0.004070   4.716126   0.446702   0.261438   0.287288
    22  H    0.000685  -0.001644   0.446702   0.806107  -0.104713  -0.088308
    23  H    0.000000  -0.000046   0.261438  -0.104713   1.029421  -0.086110
    24  C    0.000318  -0.002249   0.287288  -0.088308  -0.086110   4.995444
    25  H   -0.000006  -0.000017  -0.001241   0.003833  -0.005556   0.339307
    26  H   -0.000060   0.002071  -0.076222  -0.008055   0.023806   0.389534
    27  O   -0.000033  -0.000451  -0.061526   0.003761   0.008702   0.310003
    28  H   -0.000032   0.000215  -0.009925   0.012203   0.000463  -0.132762
              25         26         27         28
     1  Si   0.000262  -0.002382   0.000102   0.000521
     2  O   -0.000016  -0.000328   0.000053   0.001654
     3  O   -0.000051  -0.000005  -0.000151  -0.000146
     4  O    0.000006  -0.000001  -0.000027   0.000177
     5  O    0.000006   0.000007  -0.000029   0.000195
     6  O    0.008068   0.008746  -0.063534   0.115798
     7  O    0.000000  -0.000002   0.000000   0.000001
     8  H    0.000000   0.000000   0.000001  -0.000010
     9  C   -0.000034  -0.000032  -0.000010  -0.000012
    10  H    0.000000  -0.000000  -0.000000   0.000004
    11  H    0.000005   0.000011   0.000005   0.000012
    12  C    0.000061  -0.000006   0.000072  -0.000935
    13  H   -0.000001  -0.000002  -0.000001   0.000000
    14  H   -0.000096  -0.000086  -0.000162   0.000883
    15  C   -0.000756   0.019509  -0.014649   0.002572
    16  H    0.000015   0.000297   0.000199   0.000497
    17  H    0.001472  -0.019686   0.023336  -0.009614
    18  C    0.000415  -0.011699   0.002442   0.000396
    19  H   -0.000006  -0.000060  -0.000033  -0.000032
    20  H   -0.000017   0.002071  -0.000451   0.000215
    21  C   -0.001241  -0.076222  -0.061526  -0.009925
    22  H    0.003833  -0.008055   0.003761   0.012203
    23  H   -0.005556   0.023806   0.008702   0.000463
    24  C    0.339307   0.389534   0.310003  -0.132762
    25  H    0.772977  -0.070961  -0.040455   0.010490
    26  H   -0.070961   0.795424  -0.065008   0.010421
    27  O   -0.040455  -0.065008   8.081726   0.322286
    28  H    0.010490   0.010421   0.322286   0.448904
 Mulliken charges:
               1
     1  Si   0.891478
     2  O   -0.495401
     3  O   -0.453437
     4  O   -0.480347
     5  O   -0.458281
     6  O   -0.687205
     7  O   -0.524813
     8  H    0.121431
     9  C    0.115066
    10  H   -0.022172
    11  H   -0.028575
    12  C    0.094321
    13  H   -0.039522
    14  H    0.007205
    15  C    0.073002
    16  H   -0.037904
    17  H    0.019514
    18  C    0.101986
    19  H   -0.028548
    20  H   -0.019321
    21  C    0.141869
    22  H   -0.007635
    23  H   -0.074835
    24  C    0.086048
    25  H   -0.017728
    26  H    0.004711
    27  O   -0.506652
    28  H    0.225745
 Sum of Mulliken charges =  -2.00000
 Mulliken charges with hydrogens summed into heavy atoms:
               1
     1  Si   0.891478
     2  O   -0.495401
     3  O   -0.453437
     4  O   -0.480347
     5  O   -0.458281
     6  O   -0.687205
     7  O   -0.403383
     9  C    0.064319
    12  C    0.062005
    15  C    0.054612
    18  C    0.054118
    21  C    0.059398
    24  C    0.073031
    27  O   -0.280907
 APT charges:
               1
     1  Si   2.568206
     2  O   -0.988224
     3  O   -0.982808
     4  O   -0.996522
     5  O   -1.005785
     6  O   -1.079548
     7  O   -0.889708
     8  H    0.209144
     9  C    0.601300
    10  H   -0.183247
    11  H   -0.152194
    12  C    0.545765
    13  H   -0.183051
    14  H   -0.090688
    15  C    0.526042
    16  H   -0.175947
    17  H   -0.087768
    18  C    0.582712
    19  H   -0.186211
    20  H   -0.138235
    21  C    0.650119
    22  H   -0.076647
    23  H   -0.247839
    24  C    0.412807
    25  H   -0.150277
    26  H   -0.117285
    27  O   -0.775616
    28  H    0.411506
 Sum of APT charges =  -2.00000
 APT charges with hydrogens summed into heavy atoms:
               1
     1  Si   2.568206
     2  O   -0.988224
     3  O   -0.982808
     4  O   -0.996522
     5  O   -1.005785
     6  O   -1.079548
     7  O   -0.680564
     9  C    0.265859
    12  C    0.272026
    15  C    0.262327
    18  C    0.258265
    21  C    0.325632
    24  C    0.145246
    27  O   -0.364110
 Electronic spatial extent (au):  <R**2>=           2906.8463
 Charge=             -2.0000 electrons
 Dipole moment (field-independent basis, Debye):
    X=             -0.2995    Y=              0.7314    Z=             -0.6808  Tot=              1.0431
 Quadrupole moment (field-independent basis, Debye-Ang):
   XX=           -144.6467   YY=           -115.0058   ZZ=           -114.7700
   XY=              7.3516   XZ=             -6.9701   YZ=              2.7508
 Traceless Quadrupole moment (field-independent basis, Debye-Ang):
   XX=            -19.8392   YY=              9.8017   ZZ=             10.0375
   XY=              7.3516   XZ=             -6.9701   YZ=              2.7508
 Octapole moment (field-independent basis, Debye-Ang**2):
  XXX=            -69.7775  YYY=              7.4110  ZZZ=              6.3144  XYY=             -5.9260
  XXY=             24.4018  XXZ=            -11.4197  XZZ=              3.1185  YZZ=              0.4006
  YYZ=              5.6326  XYZ=             -2.0586
 Hexadecapole moment (field-independent basis, Debye-Ang**3):
 XXXX=          -2621.3914 YYYY=          -1475.0533 ZZZZ=           -571.9603 XXXY=             67.3035
 XXXZ=            -89.0630 YYYX=            -38.2942 YYYZ=              4.5752 ZZZX=             20.5959
 ZZZY=             -5.8575 XXYY=           -643.0019 XXZZ=           -486.5635 YYZZ=           -350.5614
 XXYZ=             29.6030 YYXZ=             -8.5625 ZZXY=            -11.7793
 N-N= 1.251152599222D+03 E-N=-5.027406820124D+03  KE= 1.049440236171D+03
  Exact polarizability:     145.136       5.806     144.943      -3.544       2.479     115.451
 Approx polarizability:     140.864       3.170     143.424      -3.539       3.235     134.112
   1 Symmetry operations used in ECPInt.
 ECPInt:  NShTT=   29161 NPrTT=   80163 LenC2=   27163 LenP2D=   56542.
 LDataN:  DoStor=T MaxTD1= 8 Len=  415
 Calling FoFJK, ICntrl=    100127 FMM=F ISym2X=0 I1Cent= 0 IOpClX= 0 NMat=1 NMatS=1 NMatT=0.
 ***** Axes restored to original set *****
 -------------------------------------------------------------------
 Center     Atomic                   Forces (Hartrees/Bohr)
 Number     Number              X              Y              Z
 -------------------------------------------------------------------
      1       14          -0.001788789    0.001237332    0.000409318
      2        8           0.000000600    0.000004074   -0.000002280
      3        8          -0.000012105    0.000008062   -0.000014684
      4        8          -0.000004425   -0.000006991   -0.000016625
      5        8          -0.000005504    0.000000911    0.000007649
      6        8           0.001792028   -0.001238649   -0.000400077
      7        8          -0.000001202   -0.000009863   -0.000010449
      8        1           0.000003210    0.000004748    0.000000265
      9        6           0.000015367    0.000008501   -0.000000848
     10        1          -0.000008801    0.000003033    0.000001813
     11        1          -0.000000351   -0.000003663    0.000006226
     12        6          -0.000011861   -0.000003929    0.000008130
     13        1           0.000005872    0.000000401   -0.000000465
     14        1           0.000007528   -0.000002645    0.000003196
     15        6           0.000000648   -0.000011890    0.000004239
     16        1           0.000000865   -0.000001781   -0.000008261
     17        1          -0.000002940    0.000008829    0.000001720
     18        6           0.000011760   -0.000006779   -0.000010630
     19        1          -0.000002442    0.000005188    0.000002236
     20        1          -0.000001150   -0.000000171   -0.000000525
     21        6           0.000029157    0.000014918    0.000020837
     22        1          -0.000000642   -0.000002592   -0.000004592
     23        1          -0.000002199    0.000004189   -0.000000903
     24        6          -0.000026467   -0.000016466   -0.000016206
     25        1           0.000005704    0.000004376    0.000008343
     26        1          -0.000002122    0.000004949    0.000006591
     27        8           0.000028593   -0.000001301    0.000019676
     28        1          -0.000030332   -0.000002792   -0.000013695
 -------------------------------------------------------------------
 Cartesian Forces:  Max     0.001792028 RMS     0.000341771
 FormGI is forming the generalized inverse of G from B-inverse, IUseBI=4.

 GradGradGradGradGradGradGradGradGradGradGradGradGradGradGradGradGradGrad
 Berny optimization.
 Internal  Forces:  Max     0.001575494 RMS     0.000131837
 Search for a saddle point.
 Step number   1 out of a maximum of  168
 All quantities printed in internal units (Hartrees-Bohrs-Radians)
 Swapping is turned off.
 Second derivative matrix not updated -- analytic derivatives used.
 ITU=  0
     Eigenvalues ---   -0.00644   0.00060   0.00108   0.00154   0.00204
     Eigenvalues ---    0.00239   0.00295   0.00312   0.00396   0.00509
     Eigenvalues ---    0.00736   0.01185   0.01331   0.01444   0.02121
     Eigenvalues ---    0.02388   0.03243   0.03713   0.03923   0.04144
     Eigenvalues ---    0.04292   0.04373   0.04510   0.04814   0.04936
     Eigenvalues ---    0.05028   0.05099   0.05281   0.05785   0.06090
     Eigenvalues ---    0.06440   0.06733   0.07220   0.07628   0.07780
     Eigenvalues ---    0.08229   0.08715   0.08765   0.09229   0.09252
     Eigenvalues ---    0.09846   0.10048   0.10395   0.10963   0.11283
     Eigenvalues ---    0.12004   0.13929   0.15035   0.16716   0.16955
     Eigenvalues ---    0.18465   0.19408   0.20457   0.21321   0.22664
     Eigenvalues ---    0.23733   0.24732   0.24945   0.27351   0.27561
     Eigenvalues ---    0.27808   0.27993   0.28076   0.29178   0.29398
     Eigenvalues ---    0.29542   0.29871   0.30085   0.30745   0.31319
     Eigenvalues ---    0.33023   0.34490   0.36788   0.39101   0.39316
     Eigenvalues ---    0.40386   0.42269   0.56393
 Eigenvectors required to have negative eigenvalues:
                          R5        R9        A43       A36       D60
   1                   -0.77596  -0.15610  -0.15562  -0.15392   0.13347
                          A6        D59       D58       D54       D2
   1                    0.13243   0.13175   0.12639  -0.12353   0.11904
 RFO step:  Lambda0=4.310744074D-04 Lambda=-4.03349709D-05.
 Linear search not attempted -- option 19 set.
 Iteration  1 RMS(Cart)=  0.02414186 RMS(Int)=  0.00056555
 Iteration  2 RMS(Cart)=  0.00057760 RMS(Int)=  0.00018941
 Iteration  3 RMS(Cart)=  0.00000099 RMS(Int)=  0.00018941
 Variable       Old X    -DE/DX   Delta X   Delta X   Delta X     New X
                                 (Linear)    (Quad)   (Total)
    R1        3.34070   0.00003   0.00000  -0.00444  -0.00452   3.33618
    R2        3.30980  -0.00004   0.00000  -0.00923  -0.00926   3.30054
    R3        3.29393   0.00001   0.00000  -0.00588  -0.00582   3.28810
    R4        3.31003  -0.00003   0.00000  -0.00977  -0.00974   3.30029
    R5        4.59582  -0.00158   0.00000   0.17583   0.17536   4.77117
    R6        3.29258   0.00000   0.00000  -0.01155  -0.01155   3.28102
    R7        2.61023  -0.00001   0.00000   0.00154   0.00168   2.61191
    R8        2.59918   0.00000   0.00000   0.00091   0.00083   2.60000
    R9        4.82294  -0.00022   0.00000   0.01892   0.01916   4.84211
   R10        2.60361   0.00000   0.00000   0.00068   0.00071   2.60432
   R11        2.60494  -0.00003   0.00000   0.00201   0.00193   2.60687
   R12        4.69816  -0.00006   0.00000  -0.03217  -0.03207   4.66609
   R13        2.56375   0.00021   0.00000  -0.00337  -0.00363   2.56012
   R14        1.80387  -0.00000   0.00000   0.00008   0.00008   1.80395
   R15        2.09596  -0.00001   0.00000  -0.00007  -0.00007   2.09589
   R16        2.08629  -0.00001   0.00000  -0.00099  -0.00099   2.08530
   R17        2.90110  -0.00004   0.00000  -0.00067  -0.00068   2.90042
   R18        2.08885   0.00000   0.00000  -0.00061  -0.00061   2.08824
   R19        2.08111  -0.00025   0.00000  -0.00180  -0.00159   2.07952
   R20        2.08810  -0.00000   0.00000  -0.00059  -0.00059   2.08751
   R21        2.07894  -0.00013   0.00000  -0.00171  -0.00177   2.07717
   R22        2.89868   0.00000   0.00000  -0.00047  -0.00060   2.89808
   R23        4.56702  -0.00015   0.00000   0.02699   0.02697   4.59399
   R24        2.09929  -0.00001   0.00000   0.00004   0.00004   2.09933
   R25        2.08536  -0.00000   0.00000  -0.00109  -0.00109   2.08427
   R26        2.08474  -0.00013   0.00000   0.00184   0.00212   2.08686
   R27        2.12208   0.00000   0.00000   0.00254   0.00254   2.12462
   R28        2.93463   0.00006   0.00000   0.00513   0.00515   2.93978
   R29        2.08033  -0.00001   0.00000   0.00043   0.00043   2.08076
   R30        2.08309  -0.00001   0.00000   0.00082   0.00082   2.08391
   R31        2.66602   0.00003   0.00000  -0.00167  -0.00141   2.66461
   R32        1.89103  -0.00011   0.00000   0.00582   0.00591   1.89693
    A1        1.55692  -0.00001   0.00000  -0.00250  -0.00268   1.55424
    A2        1.56515   0.00005   0.00000  -0.00260  -0.00285   1.56230
    A3        1.46470   0.00006   0.00000  -0.00637  -0.00663   1.45806
    A4        1.64759  -0.00008   0.00000   0.00647   0.00668   1.65427
    A5        1.53806   0.00001   0.00000  -0.00502  -0.00516   1.53290
    A6        2.84678   0.00020   0.00000  -0.03686  -0.03707   2.80971
    A7        1.44715   0.00012   0.00000  -0.01998  -0.02002   1.42713
    A8        1.72733  -0.00011   0.00000   0.01963   0.01975   1.74708
    A9        1.56747   0.00001   0.00000  -0.00160  -0.00176   1.56571
   A10        1.48780   0.00006   0.00000  -0.01012  -0.01011   1.47768
   A11        1.68377  -0.00004   0.00000   0.01006   0.01012   1.69388
   A12        1.39987   0.00008   0.00000  -0.01688  -0.01706   1.38281
   A13        1.70906  -0.00009   0.00000   0.01724   0.01732   1.72639
   A14        1.96326   0.00001   0.00000   0.00330   0.00318   1.96644
   A15        1.97605   0.00002   0.00000   0.00803   0.00828   1.98432
   A16        1.60283  -0.00013   0.00000   0.02816   0.02829   1.63112
   A17        2.12530   0.00013   0.00000  -0.04683  -0.04700   2.07830
   A18        1.97387  -0.00000   0.00000   0.00433   0.00442   1.97829
   A19        1.95989  -0.00003   0.00000   0.00580   0.00595   1.96584
   A20        1.35570   0.00018   0.00000  -0.02267  -0.02269   1.33301
   A21        2.05200   0.00016   0.00000  -0.01497  -0.01475   2.03725
   A22        1.96243  -0.00010   0.00000   0.01690   0.01663   1.97907
   A23        1.82353  -0.00000   0.00000   0.00128   0.00128   1.82481
   A24        1.93684   0.00001   0.00000  -0.00011  -0.00009   1.93675
   A25        1.93513   0.00000   0.00000  -0.00100  -0.00099   1.93414
   A26        1.87127  -0.00002   0.00000  -0.00175  -0.00180   1.86946
   A27        1.87321  -0.00000   0.00000   0.00036   0.00036   1.87357
   A28        1.90948  -0.00002   0.00000   0.00207   0.00210   1.91158
   A29        1.93851   0.00003   0.00000   0.00050   0.00049   1.93900
   A30        1.86002   0.00006   0.00000  -0.00162  -0.00171   1.85831
   A31        1.93551   0.00000   0.00000  -0.00114  -0.00114   1.93437
   A32        1.92890  -0.00008   0.00000  -0.00297  -0.00292   1.92597
   A33        1.93177  -0.00000   0.00000   0.00082   0.00084   1.93261
   A34        1.91010  -0.00001   0.00000   0.00138   0.00142   1.91151
   A35        1.89751   0.00003   0.00000   0.00342   0.00340   1.90090
   A36        1.83322  -0.00021   0.00000   0.03740   0.03752   1.87074
   A37        1.93539   0.00003   0.00000  -0.00077  -0.00096   1.93444
   A38        1.93672  -0.00002   0.00000  -0.00164  -0.00127   1.93545
   A39        1.85975  -0.00001   0.00000  -0.00230  -0.00208   1.85767
   A40        1.88807  -0.00000   0.00000   0.00324   0.00360   1.89167
   A41        1.93306  -0.00001   0.00000   0.00040   0.00064   1.93370
   A42        1.91117   0.00003   0.00000   0.00100  -0.00005   1.91112
   A43        2.47061  -0.00012   0.00000   0.04412   0.04358   2.51418
   A44        1.87262   0.00002   0.00000  -0.00061  -0.00103   1.87160
   A45        1.93817  -0.00001   0.00000  -0.00101  -0.00090   1.93728
   A46        1.93728   0.00001   0.00000  -0.00095  -0.00081   1.93648
[...]
 0.00147955,0.00058631,-0.00036827,-0.00006034,0.00038337,0.00008633,0.
 00004287,0.00006509,0.00029549,0.00906175,-0.00392896,-0.02264989,0.00
 004204,-0.00013931,0.00008124,0.00000526,-0.00002979,0.00000985,-0.000
 23592,-0.00068476,-0.00025370,0.00021090,0.00013525,0.00008465,0.00003
 609,0.00014914,-0.00000185,0.00010040,-0.00009381,-0.00005321,-0.00001
 390,0.00001742,0.00005765,0.00000997,0.00009790,0.00001363,-0.00003774
 ,-0.00004614,0.00004314,-0.00001142,-0.00000318,0.00001739,-0.00004989
 ,-0.00003452,-0.00000815,0.00044385,0.00000574,-0.00000681,-0.00005729
 ,-0.00016097,0.00001958,-0.00016555,-0.00010753,0.00000598,-0.08976552
 ,0.03138356,0.08294713,0.09674060,0.00217562,0.00076734,0.00063756,-0.
 00009187,0.00011766,-0.00035921,0.00053426,-0.00058396,0.00003767,0.00
 038436,-0.00083574,0.00063457,-0.00020790,-0.00017548,0.00012013,-0.00
 439972,0.00862657,0.01074204,-0.00027582,-0.00013233,-0.00003014,0.000
 04731,-0.00002237,0.00001904,-0.00031533,-0.00010078,-0.00014285,0.000
 02941,-0.00001571,0.00001269,-0.00005865,-0.00008009,-0.00001239,0.000
 05720,0.00003046,-0.00015134,0.00000221,-0.00001655,0.00002873,0.00000
 450,-0.00003420,0.00005119,-0.00011409,0.00001282,0.00009523,-0.000003
 19,0.00003691,-0.00007657,0.00002007,0.00002287,-0.00000984,-0.0004971
 5,-0.00080175,0.00024989,0.00002534,0.00031248,-0.00004466,0.00010967,
 0.00011116,-0.00003043,0.03444321,-0.07717119,-0.07047775,-0.03568943,
 0.08142846,0.00247645,-0.00221571,-0.00411360,-0.00032070,0.00075608,0
 .00049034,0.00127533,-0.00151491,0.00236681,0.00064307,-0.00016965,0.0
 0166500,-0.00093959,0.00002502,0.00033997,-0.00362083,0.00169708,-0.04
 432060,0.00007635,0.00005532,0.00044418,0.00008026,-0.00007763,-0.0000
 3981,-0.00039186,-0.00040936,-0.00041312,0.00009716,0.00005044,0.00010
 781,-0.00004515,-0.00003818,0.00001810,0.00046592,0.00016491,-0.000220
 64,-0.00017806,-0.00002057,0.00005770,0.00018716,0.00031039,0.00001257
 ,0.00004518,-0.00047104,-0.00029941,-0.00005678,0.00014721,0.00009535,
 -0.00020467,-0.00016903,0.00005061,0.00047496,0.00085218,-0.00041480,-
 0.00000841,-0.00021237,0.00009458,-0.00002623,0.00007831,-0.00004905,0
 .08021060,-0.06222648,-0.19607376,-0.08472062,0.06951066,0.23850510,0.
 00275892,-0.00050578,-0.00051723,-0.00015066,0.00088371,-0.00014613,-0
 .00015630,0.00080568,0.00009116,-0.00036085,-0.00053686,0.00023125,-0.
 00057977,-0.00064611,-0.00005994,-0.00260998,0.02379044,-0.01320865,-0
 .00025313,-0.00000116,0.00002964,0.00007168,-0.00002048,-0.00001225,0.
 00008432,0.00039791,0.00005193,-0.00004860,-0.00006904,-0.00000372,-0.
 00004428,-0.00015376,0.00007945,-0.00002760,0.00064726,-0.00006560,0.0
 0002778,-0.00010337,-0.00003190,0.00035538,-0.00006692,-0.00002713,-0.
 00027544,-0.00021022,-0.00019251,-0.00002866,0.00015054,-0.00003310,-0
 .00012516,-0.00015314,-0.00003391,-0.00051419,-0.00061877,-0.00004994,
 0.00002829,0.00014372,0.00004226,0.00016189,0.00007250,0.00014370,-0.0
 4744948,0.00388818,0.00656728,0.00174886,0.01447028,0.00220642,0.05400
 954,-0.00654546,0.00081211,0.00122043,0.00083424,-0.00108010,0.0003169
 1,0.00082208,-0.00105662,-0.00040613,0.00127662,0.00145623,-0.00069934
 ,0.00129163,0.00133061,0.00015861,0.02024132,-0.01190644,0.02957449,0.
 00078623,0.00002326,-0.00012247,-0.00021894,0.00006025,0.00000194,-0.0
 0033176,-0.00151898,0.00015040,0.00014156,0.00024307,-0.00009657,0.000
 05370,0.00066604,-0.00034726,0.00007266,-0.00080422,0.00044186,0.00041
 319,0.00016546,0.00008524,-0.00030796,-0.00039962,0.00015093,-0.000047
 81,0.00057566,0.00011212,0.00009655,-0.00037144,0.00007591,0.00032797,
 0.00018710,-0.00013797,0.00015617,0.00086928,0.00001053,0.00014281,-0.
 00034747,-0.00004885,-0.00006346,0.00006024,-0.00001612,-0.00479530,-0
 .21248623,-0.01470893,-0.00096914,-0.01514575,-0.00376393,-0.00914795,
 0.25386078,0.00283311,-0.00119049,-0.00183097,-0.00033753,0.00091773,0
 .00011818,0.00040317,-0.00011679,0.00139593,-0.00030982,-0.00011165,0.
 00039181,-0.00062060,-0.00054159,-0.00005486,-0.01297293,0.03554906,-0
 .01093323,-0.00010474,0.00001939,0.00016165,0.00008127,-0.00002758,-0.
 00002313,0.00012809,0.00015398,0.00001697,-0.00000407,-0.00002312,-0.0
 0000405,0.00001873,-0.00007803,0.00005523,-0.00003036,0.00057571,-0.00
 007772,-0.00003783,-0.00008361,-0.00002508,0.00022537,-0.00003233,-0.0
 0000425,-0.00015613,-0.00025658,-0.00025946,-0.00007196,0.00016990,0.0
 0002839,-0.00023244,-0.00005601,0.00004095,0.00005478,0.00020243,-0.00
 024823,0.00001748,-0.00003933,0.00008068,0.00008778,0.00004109,0.00002
 974,0.00500874,-0.00643604,-0.04916668,-0.00004957,-0.02449690,0.00174
 768,0.00627789,-0.00767368,0.05554240,0.00096341,-0.00188710,-0.001808
 02,0.00001793,0.00013339,0.00024271,0.00065860,-0.00055253,0.00075698,
 0.00036201,-0.00017655,0.00081003,-0.00098474,-0.00016270,-0.00009526,
 -0.04529302,0.00763814,-0.02485006,0.00014687,0.00002076,0.00018483,0.
 00000216,-0.00002706,-0.00000939,-0.00013051,-0.00009782,-0.00022725,0
 .00009290,0.00002531,0.00003674,-0.00006348,-0.00002921,0.00005136,-0.
 00001198,0.00044232,-0.00020580,-0.00003122,-0.00000406,0.00002503,0.0
 0014544,0.00008657,0.00000173,0.00003193,-0.00001419,-0.00012966,-0.00
 001246,0.00004150,0.00004824,-0.00002269,0.00017472,-0.00000126,0.0002
 0180,0.00066736,-0.00021549,-0.00002601,-0.00012503,-0.00000917,-0.000
 08665,-0.00007254,-0.00005211,-0.11073147,-0.03336570,0.00852584,-0.00
 968231,-0.00697346,0.00429638,-0.00358573,-0.00000964,0.00145844,0.456
 02694,0.00041141,0.00304406,0.00048598,-0.00124170,-0.00108469,-0.0003
 3310,-0.00129870,-0.00171923,-0.00024050,0.00030813,-0.00052756,0.0001
 2486,0.00030454,-0.00034015,0.00001947,0.01076894,0.01006926,0.0017016
 4,-0.00045611,-0.00028373,-0.00003983,0.00014595,-0.00000998,0.0000463
 4,-0.00006610,-0.00024643,0.00007345,0.00000979,0.00005324,-0.00003023
 ,0.00000499,0.00002406,-0.00004542,0.00008006,0.00005840,0.00006407,0.
 00001810,-0.00005041,-0.00000328,-0.00003219,-0.00018044,0.00004617,0.
 00107412,0.00017589,0.00037170,-0.00021948,0.00023007,-0.00003896,0.00
 000171,-0.00003502,0.00095115,0.00205079,0.00095048,0.00008972,-0.0006
 2308,0.00008135,-0.00014796,-0.00052807,-0.00073569,-0.00057733,-0.029
 88855,-0.09240801,0.00047843,0.01085329,0.00270253,-0.00327146,-0.0314
 8394,-0.01795337,0.00359954,-0.04906666,0.54904398,-0.00038674,0.00118
 929,0.00072119,0.00059087,-0.00009910,-0.00077678,-0.00102146,-0.00087
 785,-0.00111977,0.00075099,-0.00027246,-0.00005311,-0.00028810,-0.0000
 3422,-0.00014089,-0.02155820,-0.00370894,-0.02000563,-0.00000886,-0.00
 016151,-0.00022828,-0.00004757,0.00002572,0.00004853,-0.00024788,-0.00
 042142,-0.00004569,0.00010075,0.00005078,-0.00000584,-0.00004297,0.000
 09722,-0.00004879,-0.00013281,0.00014263,-0.00004365,0.00000156,0.0000
 0639,0.00001626,0.00014935,0.00001443,0.00003241,-0.00127374,0.0005086
 5,0.00062937,0.00012659,-0.00011757,-0.00010245,0.00011752,0.00031362,
 0.00021978,0.00172823,0.00019951,0.00079021,-0.00041568,-0.00001534,-0
 .00042077,-0.00050043,-0.00069098,-0.00058560,0.02215668,0.00467634,-0
 .06568015,0.02458946,0.01092462,-0.00318343,-0.00273935,-0.00426474,0.
 00042767,0.07439741,0.00059490,0.50682531,0.00150842,-0.00118954,-0.00
 053493,-0.00010778,0.00034761,-0.00003075,-0.00005482,0.00044319,0.000
 26111,-0.00042387,-0.00012537,0.00026970,-0.00063885,-0.00010973,-0.00
 008895,-0.00738735,-0.00345089,-0.00133420,-0.00022166,0.00014851,0.00
 007704,0.00005233,-0.00002463,-0.00001535,0.00018868,0.00024762,-0.000
 02383,-0.00011122,-0.00002158,0.00002501,0.00001759,-0.00009277,0.0000
 4575,0.00016195,0.00019025,-0.00010211,-0.00015149,-0.00003667,-0.0000
 4122,0.00011852,0.00015028,0.00004825,0.00004493,-0.00024021,-0.000034
 91,-0.00001245,0.00013794,-0.00002285,-0.00005888,-0.00012506,0.000047
 42,-0.00009455,-0.00030553,0.00001409,-0.00003993,0.00012122,0.0000294
 0,0.00004873,0.00001761,0.00002008,-0.00928363,0.02186793,-0.01566116,
 -0.00080945,-0.00050073,0.00145875,0.00163243,-0.00174267,-0.00025590,
 -0.15364883,0.09085747,-0.07240238,0.16154103,-0.00081041,-0.00048687,
 -0.00011747,0.00049247,0.00018858,0.00012421,0.00040355,0.00009384,0.0
 0002590,0.00021827,0.00022102,-0.00005232,0.00009311,0.00016835,0.0000
 2283,-0.00162752,0.00120747,0.00025847,0.00027756,0.00000121,-0.000017
 12,-0.00007470,0.00001495,-0.00000457,-0.00010242,-0.00014196,-0.00002
 946,0.00006725,0.00001118,-0.00000344,-0.00000948,0.00006030,-0.000018
 52,-0.00006839,-0.00005627,0.00001952,0.00006762,0.00002972,0.00002481
 ,-0.00002231,-0.00002128,-0.00001318,-0.00048448,0.00017202,-0.0001243
 9,0.00007230,-0.00014508,0.00003021,0.00004121,0.00001257,-0.00027168,
 -0.00046872,-0.00001080,-0.00007612,0.00022354,-0.00012354,0.00002451,
 0.00011835,0.00023471,0.00020101,-0.00809855,0.00429658,-0.00666069,0.
 00023569,0.00014427,0.00046917,0.00028939,0.00146728,-0.00043628,0.091
 84975,-0.12823186,0.06017912,-0.09998003,0.13383915,0.00051564,-0.0002
 4671,-0.00021650,-0.00018528,0.00006463,0.00007820,0.00002058,0.000140
 93,0.00014768,-0.00020582,-0.00004944,0.00007296,-0.00013269,-0.000055
 91,0.00000449,-0.00033427,0.00023527,0.00152603,-0.00011332,0.00004775
 ,0.00004933,0.00003671,-0.00001311,-0.00000749,0.00008153,0.00010941,0
 .00001175,-0.00005170,-0.00000639,0.00000406,0.00001128,-0.00003514,0.
 00001586,0.00008500,0.00006064,-0.00001083,-0.00004370,-0.00002006,-0.
 00001696,0.00002558,0.00002578,0.00000873,0.00021925,-0.00014194,-0.00
 001996,-0.00002090,0.00005915,-0.00000315,-0.00001149,-0.00009883,-0.0
 0004687,-0.00014582,-0.00001762,-0.00006975,-0.00000984,0.00005151,0.0
 0005581,0.00003809,0.00004850,0.00004355,0.00056741,-0.00096412,0.0033
 7077,-0.00099613,-0.00037369,-0.00051640,-0.00024226,-0.00102479,0.000
 38496,-0.06698828,0.05607269,-0.09104656,0.08273643,-0.06899419,0.1175
 4075,-0.00048558,-0.00084701,-0.00028449,0.00027593,0.00014733,0.00018
 713,0.00054508,0.00010104,0.00022607,0.00005214,0.00030009,-0.00002715
 ,0.00002224,0.00028807,-0.00000769,0.00153248,0.00270897,0.00075550,0.
 00016564,0.00009068,0.00003865,-0.00003926,0.00000117,-0.00001542,0.00
 001348,-0.00015514,0.00000063,-0.00001383,0.00003347,-0.00000365,0.000
 02240,0.00008393,-0.00003744,0.00011860,-0.00014141,0.00005953,-0.0000
 0530,0.00001707,0.00000292,-0.00001962,0.00002500,0.00004682,-0.000242
 18,0.00020348,-0.00023606,0.00001537,-0.00005917,0.00004634,-0.0000600
 1,0.00002032,-0.00023136,-0.00078743,0.00037274,-0.00016995,0.00016355
 ,-0.00007656,0.00004613,0.00019225,0.00028922,0.00018748,-0.00040200,-
 0.02917641,-0.00617295,0.00145285,0.00035605,-0.00009543,-0.00508180,-
 0.00393787,0.00001165,-0.05208752,-0.00686892,-0.00599247,0.00045600,0
 .02166805,0.00479872,0.04972503,0.00008181,-0.00196834,-0.00062114,0.0
 0040654,0.00069565,0.00025119,0.00062413,0.00076480,0.00047566,-0.0001
 4996,0.00043060,0.00009372,-0.00018050,0.00040956,-0.00001649,-0.00158
 019,0.00281030,-0.00083599,0.00014433,0.00024087,0.00009730,-0.0000461
 4,-0.00001527,-0.00003777,0.00008897,-0.00009664,-0.00001879,-0.000062
 80,0.00002815,0.00001077,0.00002566,0.00007607,-0.00002924,0.00021036,
 -0.00016106,0.00004985,-0.00006007,0.00001727,-0.00000795,-0.00000379,
 0.00011708,0.00005050,-0.00019715,-0.00035752,-0.00031567,0.00005200,0
 .00001516,0.00001210,-0.00008326,-0.00010285,-0.00027412,-0.00047346,-
 0.00071026,-0.00010405,0.00026187,0.00000008,0.00010673,0.00022216,0.0
 0035874,0.00019932,0.00188211,-0.01453763,-0.00083904,-0.00049396,0.00
 087499,0.00098944,-0.00377639,-0.00004761,0.00038350,-0.00878508,-0.25
 474255,-0.06373993,-0.00065435,-0.01812761,-0.00372770,0.00890382,0.27
 511141,0.00000579,-0.00099530,-0.00020435,0.00052490,0.00035917,0.0001
 1182,0.00025113,0.00046535,0.00006175,-0.00006235,0.00016112,0.0001038
 9,-0.00008643,0.00018672,0.00003130,-0.00100349,-0.00021285,0.00158138
 ,0.00011575,0.00010105,0.00002262,-0.00004132,0.00000249,-0.00001327,0
 .00000765,0.00000228,-0.00004027,-0.00001061,0.00000198,0.00001366,0.0
 0000600,0.00000862,0.00000286,0.00008133,-0.00006611,-0.00000046,-0.00
 001190,0.00001570,0.00000254,-0.00001034,0.00006041,0.00000389,-0.0005
 5239,0.00007350,-0.00016225,0.00006361,-0.00006000,-0.00000402,0.00001
 623,-0.00011296,-0.00044439,-0.00045978,-0.00031034,0.00001496,0.00016
 875,-0.00001063,0.00002137,0.00008416,0.00012731,0.00026045,0.00152667
 ,0.00353078,0.00074656,-0.00004503,0.00041200,0.00101592,0.00106040,0.
 00044862,0.00068322,-0.00885841,-0.06241988,-0.06420901,0.00029674,0.0
 1273130,0.00689619,0.00097911,0.07921646,0.09048415,0.00722036,-0.0078
 8266,0.00003569,0.00054895,0.00213253,-0.00073340,0.00030472,0.0032605
 0,0.00086787,-0.00311720,-0.00005121,0.00103463,-0.00191610,0.00003566
 ,-0.00107922,-0.04093713,-0.00512959,0.03072920,-0.00068136,0.00082738
 ,0.00001991,0.00008088,-0.00003003,-0.00005588,0.00123997,0.00123939,0
 .00028095,-0.00059148,-0.00014449,0.00000128,0.00009308,-0.00026306,0.
 00009267,0.00077060,0.00046456,-0.00006093,-0.00060258,-0.00013435,-0.
 00023277,0.00033282,0.00045119,0.00026056,-0.00096570,-0.00082051,-0.0
 0025071,0.00001857,0.00058029,-0.00017720,-0.00015654,-0.00029496,0.00
 011008,-0.00123754,-0.00173703,0.00038253,0.00001338,0.00054934,-0.000
 00114,0.00049116,0.00015138,0.00021993,-0.02831975,0.00526715,0.024094
 83,-0.00460633,-0.00321022,0.00236030,0.00224010,-0.00206776,0.0005757
 5,-0.09035843,0.00483349,0.00865475,0.00907544,-0.00254081,-0.02401586
 ,0.00516559,0.00174985,0.00224954,0.44243068,-0.00005364,-0.00305355,0
 .00070195,0.00217189,0.00117763,-0.00017359,0.00051587,0.00155929,-0.0
 0020337,-0.00025744,0.00049978,-0.00006844,0.00000644,0.00081071,-0.00
 012018,-0.00055750,0.00923187,0.00022914,0.00039193,0.00031572,-0.0001
 3897,-0.00019340,0.00003800,-0.00001990,0.00002947,-0.00004067,-0.0000
 0092,-0.00005798,0.00000773,0.00000949,0.00001545,0.00009015,-0.000044
 21,0.00024339,-0.00037121,0.00014748,0.00001177,0.00005248,0.00000450,
 -0.00009184,0.00010807,-0.00000255,-0.00270414,0.00072558,-0.00012488,
 0.00023088,-0.00021174,-0.00010884,0.00053596,-0.00048291,-0.00028462,
 -0.00074501,-0.00103366,0.00039879,0.00027823,0.00001584,-0.00022378,0
 .00031522,0.00011154,0.00018426,-0.00275491,0.00462538,0.01698681,-0.0
 0323400,0.00013587,0.00029150,0.00194547,0.00206235,-0.00065648,-0.001
 04210,-0.07478136,-0.00408556,-0.00650436,0.00607728,0.01521325,0.0058
 2806,0.00979126,-0.03189213,-0.00049943,0.06666075,0.00102491,-0.00153
 587,-0.00291013,-0.00063310,0.00010973,0.00104523,0.00104924,-0.000063
 94,0.00176801,0.00022497,-0.00005732,0.00126068,-0.00057129,-0.0000993
 1,0.00042091,-0.01406361,0.00085592,0.01347633,0.00012691,0.00003670,0
 .00044042,0.00006083,-0.00007852,-0.00006211,-0.00023760,-0.00008043,-
 0.00031674,0.00008332,0.00000892,0.00007722,-0.00004477,-0.00009336,0.
 00006999,0.00016837,0.00018954,-0.00021738,-0.00000233,0.00000091,0.00
 005563,-0.00000966,0.00009512,-0.00003946,0.00117772,-0.00050821,-0.00
 045938,-0.00006403,0.00001633,0.00015426,-0.00038072,0.00012107,-0.000
 36764,-0.00123831,0.00023879,-0.00094712,0.00032194,-0.00013232,0.0003
 7487,0.00051282,0.00054187,0.00041203,0.01405295,0.00117894,-0.0341385
 1,0.00349006,0.00247257,0.00352745,0.00037357,0.00101085,0.00163384,0.
 05029657,-0.00026326,-0.21814603,0.00426282,0.00351151,-0.03229955,0.0
 0590603,-0.01131385,-0.03543757,0.02890886,0.00276348,0.37701964,-0.00
 817088,0.00884799,0.00162073,-0.00114500,-0.00282677,0.00031359,-0.000
 65265,-0.00328893,-0.00158262,0.00261290,0.00020257,-0.00173308,0.0023
 4201,-0.00006482,0.00080089,0.01935864,0.00195345,-0.02241817,0.000578
 03,-0.00085805,-0.00019379,-0.00008080,0.00006238,0.00006950,-0.001013
 91,-0.00103484,-0.00006205,0.00050936,0.00009969,-0.00005184,-0.000050
 19,0.00027488,-0.00012499,-0.00094536,-0.00060335,0.00016621,0.0006688
 8,0.00015156,0.00020380,-0.00046842,-0.00057903,-0.00020855,0.00195211
 ,0.00069231,0.00054072,-0.00002575,-0.00063042,0.00015969,0.00023500,0
 .00101505,0.00002855,0.00140248,0.00188850,-0.00017723,-0.00014723,-0.
 00045553,0.00000444,-0.00062782,-0.00025982,-0.00037387,0.00701763,-0.
 00837421,0.02496075,-0.00221140,-0.00032191,-0.00574597,-0.00182753,0.
 00352899,-0.00199836,0.00810705,0.00005075,-0.02630550,-0.00180130,-0.
 00183028,0.00436117,-0.00069410,0.00189347,0.00370428,-0.29653614,0.00
 617571,-0.09479647,0.27161439,-0.00099683,0.00335363,-0.00066802,-0.00
 172206,-0.00110646,0.00045463,-0.00032067,-0.00135625,-0.00000681,0.00
 041576,-0.00023684,-0.00020581,0.00026964,-0.00066230,0.00022203,0.003
 18418,-0.01380949,-0.00125828,-0.00026830,-0.00029851,0.00012933,0.000
 15903,-0.00003175,0.00001438,-0.00003634,-0.00007792,0.00000613,0.0000
 7980,0.00000868,-0.00002031,-0.00000632,-0.00002612,0.00001925,-0.0003
 3906,0.00023089,-0.00012893,0.00002260,-0.00002072,0.00001176,0.000041
 28,-0.00013034,0.00003049,0.00262184,-0.00064761,0.00001946,-0.0003266
 8,0.00034756,0.00013331,-0.00040322,-0.00115757,-0.00001637,0.00015541
 ,0.00082988,-0.00059555,-0.00013910,-0.00003931,0.00031238,-0.00006458
 ,-0.00002287,-0.00002571,-0.00200446,0.00241691,0.00515428,0.00040518,
 -0.00020849,-0.00083738,0.00000881,-0.00072185,0.00064419,0.00131158,0
 .00689719,-0.00043359,0.00057447,-0.00089521,0.00364013,-0.00017605,-0
 .00087466,-0.00182467,0.00326341,-0.02412217,0.00107414,-0.00570934,0.
 03236171,0.00196556,-0.00188520,0.00041877,0.00002675,0.00035082,-0.00
 060876,-0.00013056,0.00073775,0.00000887,-0.00082806,-0.00003472,0.000
 16638,-0.00047093,0.00000794,-0.00059664,-0.00968817,-0.00147049,-0.00
 366600,-0.00014750,0.00015349,-0.00008438,0.00000179,0.00001455,0.0000
 0528,0.00034195,0.00027126,0.00011720,-0.00013022,-0.00003540,-0.00001
 996,0.00002220,-0.00003843,-0.00000185,0.00009437,0.00003128,-0.000007
 93,-0.00017825,-0.00002092,-0.00006177,0.00012127,0.00010686,0.0001301
 6,-0.00010494,0.00008993,-0.00012348,-0.00007394,0.00020754,-0.0000409
 6,0.00013736,-0.00020919,0.00045822,0.00002075,-0.00052417,0.00017046,
 -0.00002789,0.00013473,-0.00005856,0.00001299,-0.00001773,-0.00003622,
 0.00208341,0.00511449,-0.01241026,-0.00107769,0.00025719,-0.00089455,0
 .00020868,-0.00044804,-0.00011164,-0.03768213,0.00269109,-0.04386828,0
 .00095595,-0.00080316,-0.00595710,-0.00001867,-0.00005482,-0.00154294,
 -0.07427222,0.00121779,-0.07639485,0.11883815,-0.00584446,0.14501079\\
 0.00000582,-0.00000193,-0.00000027,0.00000030,-0.00000040,0.00000074,0
 .00000136,-0.00000002,0.00000149,-0.00000056,-0.00000138,-0.00000069,-
 0.00000051,-0.00000050,-0.00000046,-0.00000307,-0.00000302,0.00000137,
 -0.00000004,0.00000133,0.00000164,0.00000022,0.00000087,0.00000180,-0.
 00000041,0.00000025,0.00000023,-0.00000027,0.00000065,0.00000033,-0.00
 000009,0.,-0.00000048,-0.00000059,0.00000140,0.00000019,-0.00000080,0.
 00000125,0.00000008,-0.00000225,0.00000116,-0.00000206,0.00000043,-0.0
 0000195,0.00000186,0.00000038,0.00000015,0.00000113,-0.00000218,0.0000
 0966,-0.00000201,0.00000038,-0.00000106,0.00000157,0.00000096,-0.00000
 035,0.00000134,0.00000150,-0.00000098,0.00000064,0.00000011,-0.0000008
 4,-0.00000133,-0.00000003,0.00000022,-0.00000033,-0.00000022,-0.000000
 97,-0.00000173,0.00000042,-0.00000077,-0.00000167,-0.00000003,-0.00000
 131,-0.00000181,-0.00000015,-0.00000138,-0.00000039,-0.00000006,0.,-0.
 00000062,-0.00000064,-0.00000007,-0.00000058\\\@
 The archive entry for this job was punched.


 MICRO CREDO - NEVER TRUST A COMPUTER BIGGER
               BIGGER THAN YOU CAN LIFT.
 Job cpu time:       0 days 14 hours 18 minutes 43.1 seconds.
 Elapsed time:       0 days  3 hours 34 minutes 47.7 seconds.
 File lengths (MBytes):  RWF=    935 Int=      0 D2E=      0 Chk=     34 Scr=      1
 Normal termination of Gaussian 16 at Sun Feb 18 18:46:04 2024.
