 Entering Gaussian System, Link 0=/opt/software/gaussian/g16.c01/g16
 Initial command:
 /opt/software/gaussian/g16.c01/l1.exe "/scratch/arhender/17999643/Gau-3551.inp" -scrdir="/scratch/arhender/17999643/"
 Entering Link 1 = /opt/software/gaussian/g16.c01/l1.exe PID=      3552.
  
 Copyright (c) 1988-2019, Gaussian, Inc.  All Rights Reserved.
  
 This is part of the Gaussian(R) 16 program.  It is based on
 the Gaussian(R) 09 system (copyright 2009, Gaussian, Inc.),
 the Gaussian(R) 03 system (copyright 2003, Gaussian, Inc.),
 the Gaussian(R) 98 system (copyright 1998, Gaussian, Inc.),
 the Gaussian(R) 94 system (copyright 1995, Gaussian, Inc.),
 the Gaussian 92(TM) system (copyright 1992, Gaussian, Inc.),
 the Gaussian 90(TM) system (copyright 1990, Gaussian, Inc.),
 the Gaussian 88(TM) system (copyright 1988, Gaussian, Inc.),
 the Gaussian 86(TM) system (copyright 1986, Carnegie Mellon
 University), and the Gaussian 82(TM) system (copyright 1983,
 Carnegie Mellon University). Gaussian is a federally registered
 trademark of Gaussian, Inc.
  
 This software contains proprietary and confidential information,
 including trade secrets, belonging to Gaussian, Inc.
  
 This software is provided under written license and may be
 used, copied, transmitted, or stored only in accord with that
 written license.
  
 The following legend is applicable only to US Government
 contracts under FAR:
  
                    RESTRICTED RIGHTS LEGEND
  
 Use, reproduction and disclosure by the US Government is
 subject to restrictions as set forth in subparagraphs (a)
 and (c) of the Commercial Computer Software - Restricted
 Rights clause in FAR 52.227-19.
  
 Gaussian, Inc.
 340 Quinnipiac St., Bldg. 40, Wallingford CT 06492
  
  
 ---------------------------------------------------------------
 Warning -- This program may not be used in any manner that
 competes with the business of Gaussian, Inc. or will provide
 assistance to any competitor of Gaussian, Inc.  The licensee
 of this program is prohibited from giving any competitor of
 Gaussian, Inc. access to this program.  By using this program,
 the user acknowledges that Gaussian, Inc. is engaged in the
 business of creating and licensing software in the field of
 computational chemistry and represents and warrants to the
 licensee that it is not a competitor of Gaussian, Inc. and that
 it will not use this program in any manner prohibited above.
 ---------------------------------------------------------------
  

 Cite this work as:
 Gaussian 16, Revision C.01,
 M. J. Frisch, G. W. Trucks, H. B. Schlegel, G. E. Scuseria, 
 M. A. Robb, J. R. Cheeseman, G. Scalmani, V. Barone, 
 G. A. Petersson, H. Nakatsuji, X. Li, M. Caricato, A. V. Marenich, 
 J. Bloino, B. G. Janesko, R. Gomperts, B. Mennucci, H. P. Hratchian, 
 J. V. Ortiz, A. F. Izmaylov, J. L. Sonnenberg, D. Williams-Young, 
 F. Ding, F. Lipparini, F. Egidi, J. Goings, B. Peng, A. Petrone, 
 T. Henderson, D. Ranasinghe, V. G. Zakrzewski, J. Gao, N. Rega, 
 G. Zheng, W. Liang, M. Hada, M. Ehara, K. Toyota, R. Fukuda, 
 J. Hasegawa, M. Ishida, T. Nakajima, Y. Honda, O. Kitao, H. Nakai, 
 T. Vreven, K. Throssell, J. A. Montgomery, Jr., J. E. Peralta, 
 F. Ogliaro, M. J. Bearpark, J. J. Heyd, E. N. Brothers, K. N. Kudin, 
 V. N. Staroverov, T. A. Keith, R. Kobayashi, J. Normand, 
 K. Raghavachari, A. P. Rendell, J. C. Burant, S. S. Iyengar, 
 J. Tomasi, M. Cossi, J. M. Millam, M. Klene, C. Adamo, R. Cammi, 
 J. W. Ochterski, R. L. Martin, K. Morokuma, O. Farkas, 
 J. B. Foresman, and D. J. Fox, Gaussian, Inc., Wallingford CT, 2019.
 
 ******************************************
 Gaussian 16:  ES64L-G16RevC.01  3-Jul-2019
                21-Mar-2024 
 ******************************************
 %chk=Convert_PbiLQbiLCollapseTS_to_PbiLmLQbiLmLCollapse_calcfc.chk
 %mem=1600MB
 %nprocs=4
 Will use up to    4 processors via shared memory.
 -----------------------------------------------------------------
 # opt=(calcfc,ts,noeigen) freq wb97xd/def2tzvpp geom=connectivity
 -----------------------------------------------------------------
 1/5=1,10=4,11=1,18=20,26=3,38=1,57=2/1,3;
 2/9=110,12=2,17=6,18=5,40=1/2;
 3/5=44,7=202,11=2,25=1,30=1,71=2,74=-58,140=1/1,2,3;
 4//1;
 5/5=2,38=5/2;
 8/6=4,10=90,11=11/1;
 11/6=1,8=1,9=11,15=111,16=1/1,2,10;
 10/6=1,13=1/2;
 6/7=2,8=2,9=2,10=2,28=1/1;
 7/10=1,25=1/1,2,3,16;
 1/5=1,10=4,11=1,18=20,26=3/3(2);
 2/9=110/2;
 99//99;
 2/9=110/2;
 3/5=44,7=202,11=2,25=1,30=1,71=1,74=-58/1,2,3;
 4/5=5,16=3,69=1/1;
 5/5=2,38=5/2;
 7//1,2,3,16;
 1/5=1,11=1,18=20,26=3/3(-5);
 2/9=110/2;
 6/7=2,8=2,9=2,10=2,19=2,28=1/1;
 99/9=1/99;
 --------------------------------------------------------
 Convert TS for PbiL to QbiL collapse to PbiLmL to QbiLmL
 --------------------------------------------------------
 Symbolic Z-matrix:
 Charge = -1 Multiplicity = 1
 Si                    0.37595  -0.23707   0.05587 
 O                     0.95575  -0.93741  -1.35198 
 O                     2.31462   0.98092  -0.00969 
 H                     2.84588   0.46763  -0.61697 
 O                    -0.43139   1.22416  -0.18382 
 O                     1.18215  -0.48205   1.41102 
 H                     2.0121    0.25291   0.9231 
 O                    -1.1056   -1.12665   0.14338 
 C                    -2.17341  -0.26206   0.37348 
 H                    -3.10573  -0.68267  -0.02338 
 H                    -2.31329  -0.09045   1.45193 
 C                    -1.81125   1.05555  -0.31979 
 H                    -2.0869    1.00515  -1.38468 
 H                    -2.33979   1.90722   0.1238 
 C                    -0.01369  -1.88975  -1.79711 
 H                    -0.2191   -2.58432  -1.00953 
 H                    -0.91514  -1.381    -2.06812 
 C                     0.53538  -2.64791  -3.01994 
 H                    -0.19985  -3.34284  -3.36838 
 H                     0.76442  -1.95066  -3.79858 
 O                     1.72172  -3.35503  -2.64915 
 H                     1.96307  -3.96548  -3.34965 
 
 Add virtual bond connecting atoms H7         and O6         Dist= 2.29D+00.
 Add virtual bond connecting atoms H7         and O3         Dist= 2.31D+00.

 GradGradGradGradGradGradGradGradGradGradGradGradGradGradGradGradGradGrad
 Berny optimization.
 Initialization pass.
                           ----------------------------
                           !    Initial Parameters    !
                           ! (Angstroms and Degrees)  !
 --------------------------                            --------------------------
 ! Name  Definition              Value          Derivative Info.                !
 --------------------------------------------------------------------------------
 ! R1    R(1,2)                  1.6759         calculate D2E/DX2 analytically  !
 ! R2    R(1,5)                  1.6865         calculate D2E/DX2 analytically  !
 ! R3    R(1,6)                  1.5958         calculate D2E/DX2 analytically  !
 ! R4    R(1,8)                  1.7303         calculate D2E/DX2 analytically  !
 ! R5    R(2,15)                 1.43           calculate D2E/DX2 analytically  !
 ! R6    R(3,4)                  0.9563         calculate D2E/DX2 analytically  !
 ! R7    R(3,7)                  1.2213         calculate D2E/DX2 analytically  !
 ! R8    R(5,12)                 1.3968         calculate D2E/DX2 analytically  !
 ! R9    R(6,7)                  1.2112         calculate D2E/DX2 analytically  !
 ! R10   R(8,9)                  1.3931         calculate D2E/DX2 analytically  !
 ! R11   R(9,10)                 1.0971         calculate D2E/DX2 analytically  !
 ! R12   R(9,11)                 1.1009         calculate D2E/DX2 analytically  !
 ! R13   R(9,12)                 1.5323         calculate D2E/DX2 analytically  !
 ! R14   R(12,13)                1.1011         calculate D2E/DX2 analytically  !
 ! R15   R(12,14)                1.0961         calculate D2E/DX2 analytically  !
 ! R16   R(15,16)                1.07           calculate D2E/DX2 analytically  !
 ! R17   R(15,17)                1.07           calculate D2E/DX2 analytically  !
 ! R18   R(15,18)                1.54           calculate D2E/DX2 analytically  !
 ! R19   R(18,19)                1.07           calculate D2E/DX2 analytically  !
 ! R20   R(18,20)                1.07           calculate D2E/DX2 analytically  !
 ! R21   R(18,21)                1.43           calculate D2E/DX2 analytically  !
 ! R22   R(21,22)                0.96           calculate D2E/DX2 analytically  !
 ! A1    A(2,1,5)              114.097          calculate D2E/DX2 analytically  !
 ! A2    A(2,1,6)              118.3235         calculate D2E/DX2 analytically  !
 ! A3    A(2,1,8)               97.1153         calculate D2E/DX2 analytically  !
 ! A4    A(5,1,6)              119.7058         calculate D2E/DX2 analytically  !
 ! A5    A(5,1,8)               92.4501         calculate D2E/DX2 analytically  !
 ! A6    A(6,1,8)              108.1016         calculate D2E/DX2 analytically  !
 ! A7    A(1,2,15)             107.7733         calculate D2E/DX2 analytically  !
 ! A8    A(4,3,7)              107.6184         calculate D2E/DX2 analytically  !
 ! A9    A(1,5,12)             112.467          calculate D2E/DX2 analytically  !
 ! A10   A(1,6,7)               84.8901         calculate D2E/DX2 analytically  !
 ! A11   A(3,7,6)              147.0445         calculate D2E/DX2 analytically  !
 ! A12   A(1,8,9)              110.2178         calculate D2E/DX2 analytically  !
 ! A13   A(8,9,10)             110.7134         calculate D2E/DX2 analytically  !
 ! A14   A(8,9,11)             110.8509         calculate D2E/DX2 analytically  !
 ! A15   A(8,9,12)             106.1277         calculate D2E/DX2 analytically  !
 ! A16   A(10,9,11)            107.8265         calculate D2E/DX2 analytically  !
 ! A17   A(10,9,12)            111.5222         calculate D2E/DX2 analytically  !
 ! A18   A(11,9,12)            109.8273         calculate D2E/DX2 analytically  !
 ! A19   A(5,12,9)             107.0526         calculate D2E/DX2 analytically  !
 ! A20   A(5,12,13)            110.3019         calculate D2E/DX2 analytically  !
 ! A21   A(5,12,14)            110.0703         calculate D2E/DX2 analytically  !
 ! A22   A(9,12,13)            109.8173         calculate D2E/DX2 analytically  !
 ! A23   A(9,12,14)            111.7814         calculate D2E/DX2 analytically  !
 ! A24   A(13,12,14)           107.8322         calculate D2E/DX2 analytically  !
 ! A25   A(2,15,16)            109.4712         calculate D2E/DX2 analytically  !
 ! A26   A(2,15,17)            109.4712         calculate D2E/DX2 analytically  !
 ! A27   A(2,15,18)            109.4712         calculate D2E/DX2 analytically  !
 ! A28   A(16,15,17)           109.4713         calculate D2E/DX2 analytically  !
 ! A29   A(16,15,18)           109.4712         calculate D2E/DX2 analytically  !
 ! A30   A(17,15,18)           109.4712         calculate D2E/DX2 analytically  !
 ! A31   A(15,18,19)           109.4712         calculate D2E/DX2 analytically  !
 ! A32   A(15,18,20)           109.4712         calculate D2E/DX2 analytically  !
 ! A33   A(15,18,21)           109.4712         calculate D2E/DX2 analytically  !
 ! A34   A(19,18,20)           109.4712         calculate D2E/DX2 analytically  !
 ! A35   A(19,18,21)           109.4713         calculate D2E/DX2 analytically  !
 ! A36   A(20,18,21)           109.4712         calculate D2E/DX2 analytically  !
 ! A37   A(18,21,22)           109.5            calculate D2E/DX2 analytically  !
 ! D1    D(5,1,2,15)           -95.52           calculate D2E/DX2 analytically  !
 ! D2    D(6,1,2,15)           115.416          calculate D2E/DX2 analytically  !
 ! D3    D(8,1,2,15)             0.3934         calculate D2E/DX2 analytically  !
 ! D4    D(2,1,5,12)            93.6384         calculate D2E/DX2 analytically  !
 ! D5    D(6,1,5,12)          -117.7614         calculate D2E/DX2 analytically  !
 ! D6    D(8,1,5,12)            -5.2757         calculate D2E/DX2 analytically  !
 ! D7    D(2,1,6,7)             71.4018         calculate D2E/DX2 analytically  !
 ! D8    D(5,1,6,7)            -75.8951         calculate D2E/DX2 analytically  !
 ! D9    D(8,1,6,7)           -179.6798         calculate D2E/DX2 analytically  !
 ! D10   D(2,1,8,9)           -131.7865         calculate D2E/DX2 analytically  !
 ! D11   D(5,1,8,9)            -17.1305         calculate D2E/DX2 analytically  !
 ! D12   D(6,1,8,9)            105.2686         calculate D2E/DX2 analytically  !
 ! D13   D(1,2,15,16)          -54.9795         calculate D2E/DX2 analytically  !
 ! D14   D(1,2,15,17)           65.0205         calculate D2E/DX2 analytically  !
 ! D15   D(1,2,15,18)         -174.9795         calculate D2E/DX2 analytically  !
 ! D16   D(4,3,7,6)            -96.2915         calculate D2E/DX2 analytically  !
 ! D17   D(1,5,12,9)            23.8149         calculate D2E/DX2 analytically  !
 ! D18   D(1,5,12,13)          -95.6294         calculate D2E/DX2 analytically  !
 ! D19   D(1,5,12,14)          145.5029         calculate D2E/DX2 analytically  !
 ! D20   D(1,6,7,3)              4.3797         calculate D2E/DX2 analytically  !
 ! D21   D(1,8,9,10)           153.3091         calculate D2E/DX2 analytically  !
 ! D22   D(1,8,9,11)           -87.0704         calculate D2E/DX2 analytically  !
 ! D23   D(1,8,9,12)            32.1362         calculate D2E/DX2 analytically  !
 ! D24   D(8,9,12,5)           -35.4991         calculate D2E/DX2 analytically  !
 ! D25   D(8,9,12,13)           84.2567         calculate D2E/DX2 analytically  !
 ! D26   D(8,9,12,14)         -156.1044         calculate D2E/DX2 analytically  !
 ! D27   D(10,9,12,5)         -156.1503         calculate D2E/DX2 analytically  !
 ! D28   D(10,9,12,13)         -36.3946         calculate D2E/DX2 analytically  !
 ! D29   D(10,9,12,14)          83.2444         calculate D2E/DX2 analytically  !
 ! D30   D(11,9,12,5)           84.3771         calculate D2E/DX2 analytically  !
 ! D31   D(11,9,12,13)        -155.8671         calculate D2E/DX2 analytically  !
 ! D32   D(11,9,12,14)         -36.2282         calculate D2E/DX2 analytically  !
 ! D33   D(2,15,18,19)        -178.5572         calculate D2E/DX2 analytically  !
 ! D34   D(2,15,18,20)         -58.5572         calculate D2E/DX2 analytically  !
 ! D35   D(2,15,18,21)          61.4428         calculate D2E/DX2 analytically  !
 ! D36   D(16,15,18,19)         61.4428         calculate D2E/DX2 analytically  !
 ! D37   D(16,15,18,20)       -178.5572         calculate D2E/DX2 analytically  !
 ! D38   D(16,15,18,21)        -58.5572         calculate D2E/DX2 analytically  !
 ! D39   D(17,15,18,19)        -58.5572         calculate D2E/DX2 analytically  !
 ! D40   D(17,15,18,20)         61.4428         calculate D2E/DX2 analytically  !
 ! D41   D(17,15,18,21)       -178.5572         calculate D2E/DX2 analytically  !
 ! D42   D(15,18,21,22)        168.4797         calculate D2E/DX2 analytically  !
 ! D43   D(19,18,21,22)         48.4797         calculate D2E/DX2 analytically  !
 ! D44   D(20,18,21,22)        -71.5203         calculate D2E/DX2 analytically  !
 --------------------------------------------------------------------------------
 Trust Radius=3.00D-01 FncErr=1.00D-07 GrdErr=1.00D-06 EigMax=2.50D+02 EigMin=1.00D-04
 Number of steps in this run=    113 maximum allowed number of steps=    132.
 Search for a saddle point of order  1.
 GradGradGradGradGradGradGradGradGradGradGradGradGradGradGradGradGradGrad

                          Input orientation:                          
 ---------------------------------------------------------------------
 Center     Atomic      Atomic             Coordinates (Angstroms)
 Number     Number       Type             X           Y           Z
 ---------------------------------------------------------------------
      1         14           0        0.375945   -0.237067    0.055865
      2          8           0        0.955749   -0.937408   -1.351984
      3          8           0        2.314618    0.980917   -0.009688
      4          1           0        2.845876    0.467634   -0.616968
      5          8           0       -0.431385    1.224156   -0.183820
      6          8           0        1.182147   -0.482054    1.411022
      7          1           0        2.012103    0.252906    0.923104
      8          8           0       -1.105597   -1.126646    0.143375
      9          6           0       -2.173411   -0.262062    0.373480
     10          1           0       -3.105729   -0.682673   -0.023380
     11          1           0       -2.313293   -0.090445    1.451928
     12          6           0       -1.811252    1.055552   -0.319790
     13          1           0       -2.086899    1.005150   -1.384680
     14          1           0       -2.339790    1.907221    0.123802
     15          6           0       -0.013685   -1.889752   -1.797110
     16          1           0       -0.219100   -2.584321   -1.009532
     17          1           0       -0.915142   -1.381002   -2.068123
     18          6           0        0.535377   -2.647914   -3.019944
     19          1           0       -0.199853   -3.342845   -3.368383
     20          1           0        0.764415   -1.950658   -3.798581
     21          8           0        1.721717   -3.355029   -2.649153
     22          1           0        1.963068   -3.965484   -3.349649
 ---------------------------------------------------------------------
                    Distance matrix (angstroms):
                    1          2          3          4          5
     1  Si   0.000000
     2  O    1.675914   0.000000
     3  O    2.290466   2.707075   0.000000
     4  H    2.655159   2.467179   0.956286   0.000000
     5  O    1.686536   2.821543   2.762249   3.391221   0.000000
     6  O    1.595754   2.809414   2.332636   2.789739   2.838690
     7  H    1.915513   2.776465   1.221317   1.764400   2.852935
     8  O    1.730311   2.553636   4.020338   4.328278   2.467365
     9  C    2.569187   3.636614   4.672710   5.167851   2.356710
    10  H    3.510968   4.280851   5.669910   6.090743   3.288442
    11  H    3.033561   4.389294   4.970080   5.586484   2.818763
    12  C    2.568231   3.562809   4.138180   4.703488   1.396763
    13  H    3.111892   3.610029   4.611349   5.021013   2.056880
    14  H    3.460896   4.596785   4.747565   5.432521   2.050175
    15  C    2.513304   1.430000   4.105681   3.889357   3.531799
    16  H    2.645515   2.051796   4.486684   4.343111   3.902738
    17  H    2.736205   2.051796   4.499686   4.434926   3.251380
    18  C    3.911292   2.425826   5.039420   4.562822   4.896034
    19  H    4.658634   3.344758   6.024808   5.600580   5.572481
    20  H    4.236042   2.655018   5.035173   4.505915   4.957406
    21  O    4.341648   2.848551   5.110649   4.472836   5.628734
    22  H    5.293163   3.764917   5.978780   5.281991   6.533624
                    6          7          8          9         10
     6  O    0.000000
     7  H    1.211221   0.000000
     8  O    2.693734   3.497312   0.000000
     9  C    3.519184   4.252741   1.393083   0.000000
    10  H    4.525885   5.288038   2.055589   1.097100   0.000000
    11  H    3.517546   4.371109   2.060231   1.100940   1.776295
    12  C    3.784228   4.099643   2.339756   1.532282   2.187454
    13  H    4.551306   4.763775   2.800439   2.168971   2.395809
    14  H    4.446303   4.723835   3.275357   2.189934   2.704788
    15  C    3.701857   4.011779   2.353739   3.467745   3.763495
    16  H    3.498872   4.094289   2.059099   3.335408   3.594634
    17  H    4.160671   4.492868   2.234210   2.965922   3.076899
    18  C    4.974205   5.113033   3.874743   4.954306   5.108739
    19  H    5.739055   6.019886   4.250218   5.233325   5.168140
    20  H    5.428744   5.357866   4.440153   5.374781   5.553192
    21  O    5.003013   5.085523   4.556052   5.820204   6.110679
    22  H    5.950471   6.004468   5.447653   6.684870   6.894463
                   11         12         13         14         15
    11  H    0.000000
    12  C    2.168949   0.000000
    13  H    3.049250   1.101141   0.000000
    14  H    2.399019   1.096114   1.775726   0.000000
    15  C    4.368289   3.753470   3.584519   4.849502   0.000000
    16  H    4.082138   4.032291   4.063707   5.094676   1.070000
    17  H    4.001390   3.129933   2.744782   4.200782   1.070000
    18  C    5.886697   5.149093   4.784903   6.236904   1.540000
    19  H    6.187094   5.588955   5.138198   6.658669   2.148263
    20  H    6.364002   5.270042   4.763792   6.316994   2.148263
    21  O    6.614959   6.112367   5.925842   7.202527   2.425826
    22  H    7.507219   6.973976   6.706008   8.066481   3.259845
                   16         17         18         19         20
    16  H    0.000000
    17  H    1.747303   0.000000
    18  C    2.148263   2.148263   0.000000
    19  H    2.477883   2.459906   1.070000   0.000000
    20  H    3.024504   2.477883   1.070000   1.747303   0.000000
    21  O    2.655017   3.344758   1.430000   2.051796   2.051796
    22  H    3.485056   4.075040   1.970533   2.250835   2.387013
                   21         22
    21  O    0.000000
    22  H    0.960000   0.000000
 Stoichiometry    C4H11O6Si(1-)
 Framework group  C1[X(C4H11O6Si)]
 Deg. of freedom    60
 Full point group                 C1      NOp   1
 Largest Abelian subgroup         C1      NOp   1
 Largest concise Abelian subgroup C1      NOp   1
                         Standard orientation:                         
 ---------------------------------------------------------------------
 Center     Atomic      Atomic             Coordinates (Angstroms)
 Number     Number       Type             X           Y           Z
 ---------------------------------------------------------------------
      1         14           0       -0.662349    0.477013    0.218355
      2          8           0        0.907358    0.457559   -0.368444
      3          8           0       -0.740362    2.582795   -0.679326
      4          1           0        0.188368    2.778608   -0.795946
      5          8           0       -1.829718    0.056228   -0.923833
      6          8           0       -1.025506    1.514883    1.374803
      7          1           0       -0.923633    2.352689    0.506034
      8          8           0       -0.654339   -1.111391    0.904566
      9          6           0       -1.795089   -1.809797    0.515207
     10          1           0       -1.608133   -2.890846    0.518218
     11          1           0       -2.630730   -1.610354    1.203680
     12          6           0       -2.145688   -1.303856   -0.888001
     13          1           0       -1.557975   -1.852575   -1.640341
     14          1           0       -3.207103   -1.449672   -1.119521
     15          6           0        1.478694   -0.812735   -0.044676
     16          1           0        1.398048   -0.982017    1.008766
     17          1           0        0.955542   -1.583657   -0.570881
     18          6           0        2.962997   -0.827555   -0.454829
     19          1           0        3.384040   -1.786501   -0.235638
     20          1           0        3.045117   -0.633304   -1.503839
     21          8           0        3.668825    0.180659    0.273327
     22          1           0        4.613793    0.057235    0.157559
 ---------------------------------------------------------------------
 Rotational constants (GHZ):           1.3281290           0.7066229           0.5573287
 Standard basis: def2TZVPP (5D, 7F)
 There are   573 symmetry adapted cartesian basis functions of A   symmetry.
 There are   506 symmetry adapted basis functions of A   symmetry.
   506 basis functions,   766 primitive gaussians,   573 cartesian basis functions
    49 alpha electrons       49 beta electrons
       nuclear repulsion energy       845.7726342214 Hartrees.
 NAtoms=   22 NActive=   22 NUniq=   22 SFac= 1.00D+00 NAtFMM=   60 NAOKFM=F Big=F
 Integral buffers will be    131072 words long.
 Raffenetti 2 integral format.
 Two-electron integral symmetry is turned on.
 Nuclear repulsion after empirical dispersion term =      845.7607726824 Hartrees.
 One-electron integrals computed using PRISM.
   1 Symmetry operations used in ECPInt.
 ECPInt:  NShTT=   18145 NPrTT=   50058 LenC2=   16888 LenP2D=   35859.
 LDataN:  DoStor=T MaxTD1= 6 Len=  172
 NBasis=   506 RedAO= T EigKep=  2.34D-04  NBF=   506
 NBsUse=   506 1.00D-06 EigRej= -1.00D+00 NBFU=   506
 ExpMin= 7.01D-02 ExpMax= 4.48D+04 ExpMxC= 1.53D+03 IAcc=3 IRadAn=         5 AccDes= 0.00D+00
 Harris functional with IExCor= 4639 and IRadAn=       5 diagonalized for initial guess.
 HarFok:  IExCor= 4639 AccDes= 0.00D+00 IRadAn=         5 IDoV= 1 UseB2=F ITyADJ=14
 ICtDFT=  3500011 ScaDFX=  1.000000  1.000000  1.000000  1.000000
 FoFCou: FMM=F IPFlag=           0 FMFlag=      100000 FMFlg1=           0
         NFxFlg=           0 DoJE=T BraDBF=F KetDBF=T FulRan=T
         wScrn=  0.000000 ICntrl=       500 IOpCl=  0 I1Cent=   200000004 NGrid=           0
         NMat0=    1 NMatS0=      1 NMatT0=    0 NMatD0=    1 NMtDS0=    0 NMtDT0=    0
 Petite list used in FoFCou.
 Requested convergence on RMS density matrix=1.00D-08 within 128 cycles.
 Requested convergence on MAX density matrix=1.00D-06.
 Requested convergence on             energy=1.00D-06.
 No special actions if energy rises.
 Integral accuracy reduced to 1.0D-05 until final iterations.
 Initial convergence to 1.0D-05 achieved.  Increase integral accuracy.
 SCF Done:  E(RwB97XD) =  -900.133163051     A.U. after   14 cycles
            NFock= 14  Conv=0.81D-08     -V/T= 2.0034
 DoSCS=F DFT=T ScalE2(SS,OS)=  1.000000  1.000000
 Range of M.O.s used for correlation:     1   506
 NBasis=   506 NAE=    49 NBE=    49 NFC=     0 NFV=     0
 NROrb=    506 NOA=    49 NOB=    49 NVA=   457 NVB=   457

 **** Warning!!: The largest alpha MO coefficient is  0.12275199D+02

   1 Symmetry operations used in ECPInt.
 ECPInt:  NShTT=   18145 NPrTT=   50058 LenC2=   16888 LenP2D=   35859.
 LDataN:  DoStor=T MaxTD1= 7 Len=  274
 Symmetrizing basis deriv contribution to polar:
 IMax=3 JMax=2 DiffMx= 0.00D+00
 G2DrvN: will do    23 centers at a time, making    1 passes.
 Calling FoFCou, ICntrl=  3107 FMM=F I1Cent=   0 AccDes= 0.00D+00.
 End of G2Drv F.D. properties file   721 does not exist.
 End of G2Drv F.D. properties file   722 does not exist.
 End of G2Drv F.D. properties file   788 does not exist.
          IDoAtm=1111111111111111111111
          Differentiating once with respect to nuclear coordinates.
 CalDSu exits because no D1Ps are significant.
          There are    69 degrees of freedom in the 1st order CPHF.  IDoFFX=6 NUNeed=     0.
     63 vectors produced by pass  0 Test12= 3.25D-14 1.45D-09 XBig12= 8.94D-02 4.64D-02.
 AX will form    63 AO Fock derivatives at one time.
     63 vectors produced by pass  1 Test12= 3.25D-14 1.45D-09 XBig12= 3.21D-02 2.84D-02.
     63 vectors produced by pass  2 Test12= 3.25D-14 1.45D-09 XBig12= 7.53D-04 3.26D-03.
     63 vectors produced by pass  3 Test12= 3.25D-14 1.45D-09 XBig12= 1.04D-05 4.06D-04.
     63 vectors produced by pass  4 Test12= 3.25D-14 1.45D-09 XBig12= 1.21D-07 2.94D-05.
     63 vectors produced by pass  5 Test12= 3.25D-14 1.45D-09 XBig12= 1.09D-09 2.79D-06.
     63 vectors produced by pass  6 Test12= 3.25D-14 1.45D-09 XBig12= 8.03D-12 2.91D-07.
     31 vectors produced by pass  7 Test12= 3.25D-14 1.45D-09 XBig12= 5.50D-14 2.37D-08.
      1 vectors produced by pass  8 Test12= 3.25D-14 1.45D-09 XBig12= 8.12D-16 2.30D-09.
 InvSVY:  IOpt=1 It=  1 EMax= 2.22D-16
 Solved reduced A of dimension   473 with    69 vectors.
 End of Minotr F.D. properties file   721 does not exist.
 End of Minotr F.D. properties file   722 does not exist.
 End of Minotr F.D. properties file   788 does not exist.

 **********************************************************************

            Population analysis using the SCF Density.

 **********************************************************************

 Orbital symmetries:
       Occupied  (A) (A) (A) (A) (A) (A) (A) (A) (A) (A) (A) (A)
                 (A) (A) (A) (A) (A) (A) (A) (A) (A) (A) (A) (A)
                 (A) (A) (A) (A) (A) (A) (A) (A) (A) (A) (A) (A)
                 (A) (A) (A) (A) (A) (A) (A) (A) (A) (A) (A) (A)
                 (A)
       Virtual   (A) (A) (A) (A) (A) (A) (A) (A) (A) (A) (A) (A)
                 (A) (A) (A) (A) (A) (A) (A) (A) (A) (A) (A) (A)
                 (A) (A) (A) (A) (A) (A) (A) (A) (A) (A) (A) (A)
                 (A) (A) (A) (A) (A) (A) (A) (A) (A) (A) (A) (A)
                 (A) (A) (A) (A) (A) (A) (A) (A) (A) (A) (A) (A)
                 (A) (A) (A) (A) (A) (A) (A) (A) (A) (A) (A) (A)
                 (A) (A) (A) (A) (A) (A) (A) (A) (A) (A) (A) (A)
                 (A) (A) (A) (A) (A) (A) (A) (A) (A) (A) (A) (A)
                 (A) (A) (A) (A) (A) (A) (A) (A) (A) (A) (A) (A)
                 (A) (A) (A) (A) (A) (A) (A) (A) (A) (A) (A) (A)
                 (A) (A) (A) (A) (A) (A) (A) (A) (A) (A) (A) (A)
                 (A) (A) (A) (A) (A) (A) (A) (A) (A) (A) (A) (A)
                 (A) (A) (A) (A) (A) (A) (A) (A) (A) (A) (A) (A)
                 (A) (A) (A) (A) (A) (A) (A) (A) (A) (A) (A) (A)
                 (A) (A) (A) (A) (A) (A) (A) (A) (A) (A) (A) (A)
                 (A) (A) (A) (A) (A) (A) (A) (A) (A) (A) (A) (A)
                 (A) (A) (A) (A) (A) (A) (A) (A) (A) (A) (A) (A)
                 (A) (A) (A) (A) (A) (A) (A) (A) (A) (A) (A) (A)
                 (A) (A) (A) (A) (A) (A) (A) (A) (A) (A) (A) (A)
                 (A) (A) (A) (A) (A) (A) (A) (A) (A) (A) (A) (A)
                 (A) (A) (A) (A) (A) (A) (A) (A) (A) (A) (A) (A)
                 (A) (A) (A) (A) (A) (A) (A) (A) (A) (A) (A) (A)
                 (A) (A) (A) (A) (A) (A) (A) (A) (A) (A) (A) (A)
                 (A) (A) (A) (A) (A) (A) (A) (A) (A) (A) (A) (A)
                 (A) (A) (A) (A) (A) (A) (A) (A) (A) (A) (A) (A)
                 (A) (A) (A) (A) (A) (A) (A) (A) (A) (A) (A) (A)
                 (A) (A) (A) (A) (A) (A) (A) (A) (A) (A) (A) (A)
                 (A) (A) (A) (A) (A) (A) (A) (A) (A) (A) (A) (A)
                 (A) (A) (A) (A) (A) (A) (A) (A) (A) (A) (A) (A)
                 (A) (A) (A) (A) (A) (A) (A) (A) (A) (A) (A) (A)
                 (A) (A) (A) (A) (A) (A) (A) (A) (A) (A) (A) (A)
                 (A) (A) (A) (A) (A) (A) (A) (A) (A) (A) (A) (A)
                 (A) (A) (A) (A) (A) (A) (A) (A) (A) (A) (A) (A)
                 (A) (A) (A) (A) (A) (A) (A) (A) (A) (A) (A) (A)
                 (A) (A) (A) (A) (A) (A) (A) (A) (A) (A) (A) (A)
                 (A) (A) (A) (A) (A) (A) (A) (A) (A) (A) (A) (A)
                 (A) (A) (A) (A) (A) (A) (A) (A) (A) (A) (A) (A)
                 (A) (A) (A) (A) (A) (A) (A) (A) (A) (A) (A) (A)
                 (A)
 The electronic state is 1-A.
 Alpha  occ. eigenvalues --  -66.12124 -19.13312 -19.08055 -19.07756 -19.06914
 Alpha  occ. eigenvalues --  -19.01763 -19.00121 -10.20476 -10.19154 -10.18987
 Alpha  occ. eigenvalues --  -10.18262  -5.23654  -3.58351  -3.58154  -3.57927
 Alpha  occ. eigenvalues --   -1.00679  -0.98879  -0.94605  -0.92357  -0.88364
 Alpha  occ. eigenvalues --   -0.82106  -0.70599  -0.68020  -0.58188  -0.55553
 Alpha  occ. eigenvalues --   -0.49684  -0.46820  -0.44517  -0.44342  -0.42195
 Alpha  occ. eigenvalues --   -0.39628  -0.38787  -0.38494  -0.36995  -0.35318
 Alpha  occ. eigenvalues --   -0.34252  -0.30910  -0.29122  -0.27822  -0.26582
 Alpha  occ. eigenvalues --   -0.25305  -0.25005  -0.23069  -0.22794  -0.21604
 Alpha  occ. eigenvalues --   -0.19943  -0.18630  -0.17520  -0.15182
 Alpha virt. eigenvalues --    0.20458   0.23425   0.25864   0.27457   0.27740
 Alpha virt. eigenvalues --    0.28400   0.29501   0.30522   0.31792   0.32701
 Alpha virt. eigenvalues --    0.33632   0.34340   0.35097   0.36642   0.37115
 Alpha virt. eigenvalues --    0.37955   0.40619   0.41424   0.42015   0.43648
 Alpha virt. eigenvalues --    0.44548   0.45608   0.46447   0.47434   0.48964
 Alpha virt. eigenvalues --    0.49791   0.51585   0.52205   0.53105   0.53425
 Alpha virt. eigenvalues --    0.54540   0.56240   0.57534   0.58215   0.58779
 Alpha virt. eigenvalues --    0.59680   0.59956   0.60417   0.60864   0.62106
 Alpha virt. eigenvalues --    0.63095   0.63619   0.64118   0.65149   0.65532
 Alpha virt. eigenvalues --    0.66160   0.66359   0.67018   0.68330   0.68502
 Alpha virt. eigenvalues --    0.69750   0.70780   0.71610   0.72450   0.73682
 Alpha virt. eigenvalues --    0.75446   0.75652   0.77066   0.78573   0.79531
 Alpha virt. eigenvalues --    0.80373   0.82623   0.82932   0.84222   0.86258
 Alpha virt. eigenvalues --    0.87984   0.88359   0.89283   0.91692   0.92242
 Alpha virt. eigenvalues --    0.93284   0.95178   0.95631   0.96634   0.97344
 Alpha virt. eigenvalues --    0.99056   1.00590   1.01003   1.02208   1.04210
 Alpha virt. eigenvalues --    1.04965   1.06382   1.07163   1.07865   1.09525
 Alpha virt. eigenvalues --    1.09889   1.10794   1.12652   1.13616   1.16278
 Alpha virt. eigenvalues --    1.16846   1.17960   1.19797   1.20220   1.21275
 Alpha virt. eigenvalues --    1.21428   1.22256   1.23794   1.25712   1.26308
 Alpha virt. eigenvalues --    1.26651   1.27452   1.28836   1.30944   1.32021
 Alpha virt. eigenvalues --    1.33031   1.34302   1.35380   1.36692   1.37856
 Alpha virt. eigenvalues --    1.38964   1.40623   1.41322   1.42629   1.43004
 Alpha virt. eigenvalues --    1.43543   1.44643   1.46339   1.47154   1.48462
 Alpha virt. eigenvalues --    1.50240   1.52114   1.52948   1.55329   1.56475
 Alpha virt. eigenvalues --    1.57480   1.58180   1.59274   1.59799   1.61625
 Alpha virt. eigenvalues --    1.62248   1.64110   1.66435   1.67523   1.69178
 Alpha virt. eigenvalues --    1.70348   1.70966   1.72682   1.73590   1.74408
 Alpha virt. eigenvalues --    1.76566   1.76981   1.79056   1.81003   1.82517
 Alpha virt. eigenvalues --    1.84192   1.85209   1.88017   1.90296   1.93407
 Alpha virt. eigenvalues --    1.96301   1.99701   2.01273   2.01729   2.03122
 Alpha virt. eigenvalues --    2.07135   2.08622   2.09791   2.11299   2.13448
 Alpha virt. eigenvalues --    2.15300   2.15798   2.16647   2.19769   2.20339
 Alpha virt. eigenvalues --    2.21157   2.22699   2.24346   2.24629   2.27069
 Alpha virt. eigenvalues --    2.29990   2.30146   2.31105   2.33729   2.36156
 Alpha virt. eigenvalues --    2.37584   2.38083   2.40565   2.41237   2.44154
 Alpha virt. eigenvalues --    2.46855   2.49008   2.50473   2.51825   2.53599
 Alpha virt. eigenvalues --    2.54384   2.58066   2.58303   2.61709   2.63307
 Alpha virt. eigenvalues --    2.64767   2.65841   2.67751   2.69141   2.73261
 Alpha virt. eigenvalues --    2.75712   2.78842   2.81961   2.84332   2.85770
 Alpha virt. eigenvalues --    2.86225   2.87346   2.89308   2.93709   2.95229
 Alpha virt. eigenvalues --    2.98023   2.99612   3.00735   3.01246   3.04445
 Alpha virt. eigenvalues --    3.05316   3.06189   3.08343   3.10052   3.11912
 Alpha virt. eigenvalues --    3.13903   3.15496   3.16569   3.17745   3.18631
 Alpha virt. eigenvalues --    3.19232   3.19798   3.20377   3.21241   3.22946
 Alpha virt. eigenvalues --    3.24667   3.26556   3.28087   3.29084   3.30348
 Alpha virt. eigenvalues --    3.31270   3.32680   3.33781   3.34374   3.36924
 Alpha virt. eigenvalues --    3.37290   3.37911   3.39823   3.41354   3.42930
 Alpha virt. eigenvalues --    3.43759   3.45541   3.46281   3.47970   3.48741
 Alpha virt. eigenvalues --    3.51000   3.53636   3.54374   3.55645   3.57746
 Alpha virt. eigenvalues --    3.58359   3.59956   3.60840   3.62640   3.64020
 Alpha virt. eigenvalues --    3.64770   3.65259   3.68017   3.68631   3.69768
 Alpha virt. eigenvalues --    3.71703   3.72581   3.75267   3.78138   3.78436
 Alpha virt. eigenvalues --    3.79567   3.82419   3.83989   3.84722   3.86671
 Alpha virt. eigenvalues --    3.86859   3.89093   3.89783   3.91743   3.92513
 Alpha virt. eigenvalues --    3.94258   3.95463   3.96774   3.98193   3.99148
 Alpha virt. eigenvalues --    3.99623   4.03246   4.04188   4.05313   4.07552
 Alpha virt. eigenvalues --    4.08992   4.10217   4.12021   4.13933   4.15045
 Alpha virt. eigenvalues --    4.16990   4.17785   4.20003   4.21130   4.22710
 Alpha virt. eigenvalues --    4.25723   4.25948   4.26833   4.28234   4.30087
 Alpha virt. eigenvalues --    4.30880   4.32273   4.33632   4.35360   4.36622
 Alpha virt. eigenvalues --    4.37835   4.39469   4.39621   4.40556   4.43151
 Alpha virt. eigenvalues --    4.45491   4.46826   4.47522   4.49353   4.51887
 Alpha virt. eigenvalues --    4.54213   4.57610   4.59368   4.60096   4.61178
 Alpha virt. eigenvalues --    4.63088   4.69787   4.73296   4.74004   4.76299
 Alpha virt. eigenvalues --    4.78238   4.80005   4.82674   4.84451   4.85935
 Alpha virt. eigenvalues --    4.87893   4.89223   4.91797   4.94512   4.95302
 Alpha virt. eigenvalues --    4.97380   4.98798   5.00192   5.03218   5.03785
 Alpha virt. eigenvalues --    5.05689   5.07024   5.09095   5.09969   5.12021
 Alpha virt. eigenvalues --    5.15078   5.17370   5.19868   5.22420   5.24502
 Alpha virt. eigenvalues --    5.25834   5.26778   5.28205   5.33854   5.34475
 Alpha virt. eigenvalues --    5.36348   5.37513   5.39000   5.41996   5.48108
 Alpha virt. eigenvalues --    5.49645   5.51564   5.55157   5.56273   5.57641
 Alpha virt. eigenvalues --    5.60804   5.62187   5.64995   5.66392   5.67059
 Alpha virt. eigenvalues --    5.67792   5.69344   5.70120   5.71761   5.72039
 Alpha virt. eigenvalues --    5.73553   5.76627   5.77145   5.80711   5.82933
 Alpha virt. eigenvalues --    5.83471   5.84266   5.87762   5.89353   5.90233
 Alpha virt. eigenvalues --    5.91611   5.94746   5.99703   6.00545   6.01845
 Alpha virt. eigenvalues --    6.06737   6.10331   6.15511   6.20298   6.21150
 Alpha virt. eigenvalues --    6.23599   6.26454   6.28421   6.30710   6.33078
 Alpha virt. eigenvalues --    6.35262   6.38799   6.40288   6.44152   6.51940
 Alpha virt. eigenvalues --    6.71660   6.75750   6.80080   6.84179   6.87151
 Alpha virt. eigenvalues --    6.88573   6.90162   6.91881   6.92308   6.93305
 Alpha virt. eigenvalues --    6.94629   6.95191   6.95680   6.97370   6.99561
 Alpha virt. eigenvalues --    7.01747   7.04947   7.07125   7.10408   7.12880
 Alpha virt. eigenvalues --    7.15362   7.16910   7.20035   7.23976   7.24883
 Alpha virt. eigenvalues --    7.25852   7.31791   7.34874   7.40420   7.43749
 Alpha virt. eigenvalues --    7.47377   7.56278   7.57577   7.59527   7.59980
 Alpha virt. eigenvalues --    7.65897   7.73445   7.78525   7.91204   7.94823
 Alpha virt. eigenvalues --    8.04507  12.73691  23.51382  23.59984  23.64169
 Alpha virt. eigenvalues --   23.76428  44.05167  44.19257  44.22388  44.39371
 Alpha virt. eigenvalues --   44.44536  44.51797
          Condensed to atoms (all electrons):
               1          2          3          4          5          6
     1  Si  11.615306   0.379954   0.168090  -0.017583   0.381023   0.574496
     2  O    0.379954   7.990861  -0.028891   0.005031  -0.018988  -0.024131
     3  O    0.168090  -0.028891   8.165099   0.292712  -0.022697  -0.185381
     4  H   -0.017583   0.005031   0.292712   0.582412   0.001124   0.014019
     5  O    0.381023  -0.018988  -0.022697   0.001124   7.926385  -0.025092
     6  O    0.574496  -0.024131  -0.185381   0.014019  -0.025092   8.121639
     7  H   -0.050801   0.003339   0.194546  -0.015181   0.002876   0.195754
     8  O    0.331543  -0.024708   0.000956  -0.000006  -0.020137  -0.024764
     9  C   -0.027363  -0.001602   0.000689  -0.000120  -0.072855   0.001446
    10  H    0.009510  -0.000409   0.000007   0.000001   0.004867  -0.000361
    11  H   -0.018307  -0.000262   0.000110  -0.000010   0.006904   0.001699
    12  C   -0.045197   0.000337  -0.000422  -0.000076   0.323819  -0.006539
    13  H   -0.023882   0.001348   0.000131  -0.000005  -0.054014  -0.000201
    14  H    0.007038  -0.000283  -0.000030  -0.000002  -0.043311   0.000007
    15  C   -0.027732   0.254121   0.001844  -0.000398  -0.004372  -0.006988
    16  H   -0.005942  -0.041407  -0.000052  -0.000009   0.000173   0.002347
    17  H   -0.029219  -0.048180  -0.000032  -0.000036   0.001706  -0.000287
    18  C   -0.012008  -0.037600  -0.000514   0.000157  -0.000256  -0.000101
    19  H    0.000568   0.004642   0.000000   0.000007   0.000006   0.000003
    20  H    0.000045   0.005695   0.000005  -0.000021   0.000005   0.000020
    21  O    0.000901  -0.003655  -0.000004   0.000066   0.000002  -0.000012
    22  H   -0.000098  -0.000020   0.000000  -0.000003  -0.000000   0.000000
               7          8          9         10         11         12
     1  Si  -0.050801   0.331543  -0.027363   0.009510  -0.018307  -0.045197
     2  O    0.003339  -0.024708  -0.001602  -0.000409  -0.000262   0.000337
     3  O    0.194546   0.000956   0.000689   0.000007   0.000110  -0.000422
     4  H   -0.015181  -0.000006  -0.000120   0.000001  -0.000010  -0.000076
     5  O    0.002876  -0.020137  -0.072855   0.004867   0.006904   0.323819
     6  O    0.195754  -0.024764   0.001446  -0.000361   0.001699  -0.006539
     7  H    0.403270   0.001061  -0.000735   0.000020  -0.000314   0.000915
     8  O    0.001061   8.113007   0.315985  -0.050815  -0.038655  -0.073805
     9  C   -0.000735   0.315985   4.712795   0.381596   0.411729   0.301198
    10  H    0.000020  -0.050815   0.381596   0.745279  -0.070549  -0.032740
    11  H   -0.000314  -0.038655   0.411729  -0.070549   0.711521  -0.041588
    12  C    0.000915  -0.073805   0.301198  -0.032740  -0.041588   4.713119
    13  H   -0.000173   0.008829  -0.062307  -0.014503   0.014550   0.428073
    14  H    0.000104   0.005217  -0.015838   0.008701  -0.014260   0.379334
    15  C   -0.000351  -0.028209   0.002210  -0.001000   0.002061  -0.006715
    16  H    0.000118  -0.012085   0.000450   0.000082  -0.000455   0.000196
    17  H   -0.000321  -0.014360  -0.001476   0.002262  -0.000345   0.002962
    18  C   -0.000120   0.007322  -0.000433  -0.000473   0.000163  -0.000018
    19  H   -0.000003   0.000145  -0.000040   0.000033  -0.000001   0.000018
    20  H    0.000002  -0.000310   0.000021   0.000021  -0.000001  -0.000116
    21  O   -0.000030  -0.000095   0.000011  -0.000000  -0.000000   0.000006
    22  H    0.000002   0.000019  -0.000000  -0.000001   0.000000  -0.000000
              13         14         15         16         17         18
     1  Si  -0.023882   0.007038  -0.027732  -0.005942  -0.029219  -0.012008
     2  O    0.001348  -0.000283   0.254121  -0.041407  -0.048180  -0.037600
     3  O    0.000131  -0.000030   0.001844  -0.000052  -0.000032  -0.000514
     4  H   -0.000005  -0.000002  -0.000398  -0.000009  -0.000036   0.000157
     5  O   -0.054014  -0.043311  -0.004372   0.000173   0.001706  -0.000256
     6  O   -0.000201   0.000007  -0.006988   0.002347  -0.000287  -0.000101
     7  H   -0.000173   0.000104  -0.000351   0.000118  -0.000321  -0.000120
     8  O    0.008829   0.005217  -0.028209  -0.012085  -0.014360   0.007322
     9  C   -0.062307  -0.015838   0.002210   0.000450  -0.001476  -0.000433
    10  H   -0.014503   0.008701  -0.001000   0.000082   0.002262  -0.000473
    11  H    0.014550  -0.014260   0.002061  -0.000455  -0.000345   0.000163
    12  C    0.428073   0.379334  -0.006715   0.000196   0.002962  -0.000018
    13  H    0.752647  -0.072444   0.002226   0.000172  -0.002238   0.000550
    14  H   -0.072444   0.716717  -0.000101  -0.000080   0.000248  -0.000012
    15  C    0.002226  -0.000101   4.859797   0.421117   0.381469   0.187370
    16  H    0.000172  -0.000080   0.421117   0.638601  -0.042902  -0.049166
    17  H   -0.002238   0.000248   0.381469  -0.042902   0.720627  -0.006760
    18  C    0.000550  -0.000012   0.187370  -0.049166  -0.006760   4.826730
    19  H   -0.000012   0.000000  -0.004852  -0.008064   0.002272   0.382895
    20  H    0.000056   0.000000  -0.070338   0.014236  -0.008458   0.439850
    21  O   -0.000002  -0.000000  -0.078906   0.008286   0.004290   0.332790
    22  H    0.000000   0.000000   0.013358  -0.000255  -0.000965  -0.036552
              19         20         21         22
     1  Si   0.000568   0.000045   0.000901  -0.000098
     2  O    0.004642   0.005695  -0.003655  -0.000020
     3  O    0.000000   0.000005  -0.000004   0.000000
     4  H    0.000007  -0.000021   0.000066  -0.000003
     5  O    0.000006   0.000005   0.000002  -0.000000
     6  O    0.000003   0.000020  -0.000012   0.000000
     7  H   -0.000003   0.000002  -0.000030   0.000002
     8  O    0.000145  -0.000310  -0.000095   0.000019
     9  C   -0.000040   0.000021   0.000011  -0.000000
    10  H    0.000033   0.000021  -0.000000  -0.000001
    11  H   -0.000001  -0.000001  -0.000000   0.000000
    12  C    0.000018  -0.000116   0.000006  -0.000000
    13  H   -0.000012   0.000056  -0.000002   0.000000
    14  H    0.000000   0.000000  -0.000000   0.000000
    15  C   -0.004852  -0.070338  -0.078906   0.013358
    16  H   -0.008064   0.014236   0.008286  -0.000255
    17  H    0.002272  -0.008458   0.004290  -0.000965
    18  C    0.382895   0.439850   0.332790  -0.036552
    19  H    0.694924  -0.060389  -0.050874  -0.012640
    20  H   -0.060389   0.676601  -0.052822  -0.002668
    21  O   -0.050874  -0.052822   7.854857   0.304496
    22  H   -0.012640  -0.002668   0.304496   0.598828
 Mulliken charges:
               1
     1  Si   0.789659
     2  O   -0.415192
     3  O   -0.586166
     4  H    0.137922
     5  O   -0.387168
     6  O   -0.637572
     7  H    0.266022
     8  O   -0.496135
     9  C    0.054640
    10  H    0.018473
    11  H    0.036010
    12  C    0.057239
    13  H    0.021197
    14  H    0.028994
    15  C    0.104391
    16  H    0.074636
    17  H    0.039743
    18  C   -0.033814
    19  H    0.051361
    20  H    0.058564
    21  O   -0.319304
    22  H    0.136500
 Sum of Mulliken charges =  -1.00000
 Mulliken charges with hydrogens summed into heavy atoms:
               1
     1  Si   0.789659
     2  O   -0.415192
     3  O   -0.448245
     5  O   -0.387168
     6  O   -0.371551
     8  O   -0.496135
     9  C    0.109123
    12  C    0.107431
    15  C    0.218770
    18  C    0.076112
    21  O   -0.182804
 APT charges:
               1
     1  Si   0.373967
     2  O   -0.407996
     3  O   -0.568183
     4  H    0.227481
     5  O   -0.336765
     6  O   -0.448699
     7  H    0.217967
     8  O   -0.439358
     9  C   -0.707318
    10  H    0.391350
    11  H    0.428223
    12  C   -0.629604
    13  H    0.245329
    14  H    0.545171
    15  C   -0.139578
    16  H    0.190838
    17  H    0.165359
    18  C   -0.810628
    19  H    0.518596
    20  H    0.309916
    21  O   -1.029244
    22  H    0.903175
 Sum of APT charges =  -1.00000
 APT charges with hydrogens summed into heavy atoms:
               1
     1  Si   0.373967
     2  O   -0.407996
     3  O   -0.340702
     5  O   -0.336765
     6  O   -0.230732
     8  O   -0.439358
     9  C    0.112255
    12  C    0.160896
    15  C    0.216619
    18  C    0.017884
    21  O   -0.126068
 Electronic spatial extent (au):  <R**2>=           2179.3020
 Charge=             -1.0000 electrons
 Dipole moment (field-independent basis, Debye):
    X=              4.4090    Y=             -7.0515    Z=             -1.9331  Tot=              8.5381
 Quadrupole moment (field-independent basis, Debye-Ang):
   XX=            -76.6710   YY=            -88.6622   ZZ=            -85.7377
   XY=              5.7252   XZ=             -2.1557   YZ=              1.1200
 Traceless Quadrupole moment (field-independent basis, Debye-Ang):
   XX=              7.0193   YY=             -4.9719   ZZ=             -2.0474
   XY=              5.7252   XZ=             -2.1557   YZ=              1.1200
 Octapole moment (field-independent basis, Debye-Ang**2):
  XXX=             56.9264  YYY=            -18.0788  ZZZ=             -7.8434  XYY=             23.0540
  XXY=            -17.6130  XXZ=             -3.6999  XZZ=             13.5052  YZZ=             -8.0228
  YYZ=              0.8355  XYZ=             -2.7614
 Hexadecapole moment (field-independent basis, Debye-Ang**3):
 XXXX=          -1351.4645 YYYY=           -915.5344 ZZZZ=           -343.2473 XXXY=            -17.9528
 XXXZ=            -19.6762 YYYX=             46.7834 YYYZ=             14.3709 ZZZX=              7.3679
 ZZZY=            -14.0911 XXYY=           -434.3129 XXZZ=           -349.1155 YYZZ=           -219.2150
 XXYZ=             -3.1278 YYXZ=             -5.9378 ZZXY=             14.3256
 N-N= 8.457607726824D+02 E-N=-3.835897102380D+03  KE= 8.971190354264D+02
  Exact polarizability:       0.000       0.000       0.000       0.000       0.000       0.000
 Approx polarizability:     101.271       2.048     103.698      -0.606      -0.560      95.326
   1 Symmetry operations used in ECPInt.
 ECPInt:  NShTT=   18145 NPrTT=   50058 LenC2=   16888 LenP2D=   35859.
 LDataN:  DoStor=T MaxTD1= 8 Len=  415
 Calling FoFJK, ICntrl=    100127 FMM=F ISym2X=0 I1Cent= 0 IOpClX= 0 NMat=1 NMatS=1 NMatT=0.
 ***** Axes restored to original set *****
 -------------------------------------------------------------------
 Center     Atomic                   Forces (Hartrees/Bohr)
 Number     Number              X              Y              Z
 -------------------------------------------------------------------
      1       14           0.006514692    0.008346371    0.008730992
      2        8          -0.020768189   -0.008999444    0.000362228
      3        8          -0.000868583   -0.000334366   -0.000030415
      4        1           0.000247832   -0.000254693    0.000060885
      5        8          -0.000274779   -0.000591194   -0.001304347
      6        8          -0.001256601   -0.000486222   -0.000468431
      7        1           0.000441897    0.000265067   -0.000435018
      8        8          -0.007943523    0.014614577    0.020536435
      9        6           0.000840689    0.000712961    0.002791662
     10        1           0.000003000   -0.000442902   -0.000339716
     11        1          -0.000589362    0.000193154   -0.000154518
     12        6          -0.000230009    0.000198480    0.000323097
     13        1          -0.000145597    0.000329665   -0.000028015
     14        1          -0.000017081   -0.000199763   -0.000138570
     15        6           0.044347269   -0.010807955   -0.033081239
     16        1          -0.003736923   -0.012470624    0.002064977
     17        1          -0.013182717    0.000542099   -0.008418336
     18        6           0.013724083    0.005131445    0.026729538
     19        1          -0.015026010   -0.009589277   -0.005173614
     20        1           0.002633252    0.012022711   -0.013078524
     21        8          -0.001526993   -0.003325796   -0.001609113
     22        1          -0.003186346    0.005145706    0.002660041
 -------------------------------------------------------------------
 Cartesian Forces:  Max     0.044347269 RMS     0.010050894
 FormGI is forming the generalized inverse of G from B-inverse, IUseBI=4.

 GradGradGradGradGradGradGradGradGradGradGradGradGradGradGradGradGradGrad
 Berny optimization.
 Internal  Forces:  Max     0.130661661 RMS     0.015027711
 Search for a saddle point.
 Step number   1 out of a maximum of  113
 All quantities printed in internal units (Hartrees-Bohrs-Radians)
 Swapping is turned off.
 Second derivative matrix not updated -- analytic derivatives used.
 ITU=  0
     Eigenvalues ---   -0.09904  -0.01955   0.00046   0.00120   0.00316
     Eigenvalues ---    0.00355   0.00929   0.02791   0.03228   0.03438
     Eigenvalues ---    0.04186   0.04507   0.04605   0.04905   0.05012
     Eigenvalues ---    0.05432   0.05670   0.06685   0.06816   0.07387
     Eigenvalues ---    0.08644   0.09322   0.09465   0.09841   0.09983
     Eigenvalues ---    0.10466   0.10515   0.11313   0.12205   0.13376
     Eigenvalues ---    0.14236   0.15279   0.15359   0.16127   0.19189
     Eigenvalues ---    0.21325   0.22082   0.22811   0.24511   0.26135
     Eigenvalues ---    0.26812   0.27337   0.27624   0.29278   0.30103
     Eigenvalues ---    0.30551   0.31760   0.32074   0.33503   0.34427
     Eigenvalues ---    0.35382   0.37449   0.37784   0.38965   0.39473
     Eigenvalues ---    0.40347   0.53666   0.53821   0.55623   1.17618
 Eigenvectors required to have negative eigenvalues:
                          R9        R7        A11       A10       D5
   1                    0.53591  -0.47023   0.41447   0.28071  -0.19212
                          D2        D7        A6        R3        D8
   1                    0.18402  -0.17442   0.16200  -0.15335   0.14694
 RFO step:  Lambda0=2.105778999D-05 Lambda=-2.55530443D-02.
 Linear search not attempted -- option 19 set.
 Iteration  1 RMS(Cart)=  0.13584038 RMS(Int)=  0.03642004
 Iteration  2 RMS(Cart)=  0.11212163 RMS(Int)=  0.00733464
 Iteration  3 RMS(Cart)=  0.01252133 RMS(Int)=  0.00012093
 Iteration  4 RMS(Cart)=  0.00010769 RMS(Int)=  0.00011284
 Iteration  5 RMS(Cart)=  0.00000001 RMS(Int)=  0.00011284
 Variable       Old X    -DE/DX   Delta X   Delta X   Delta X     New X
                                 (Linear)    (Quad)   (Total)
    R1        3.16702   0.03529   0.00000   0.00515   0.00515   3.17217
    R2        3.18709   0.00247   0.00000   0.00021   0.00022   3.18731
    R3        3.01554  -0.00135   0.00000  -0.00360  -0.00360   3.01194
    R4        3.26981   0.00200   0.00000  -0.02535  -0.02535   3.24446
    R5        2.70231   0.00190   0.00000  -0.05116  -0.05116   2.65115
    R6        1.80712   0.00024   0.00000   0.00009   0.00009   1.80721
    R7        2.30796  -0.00053   0.00000  -0.00687  -0.00687   2.30109
    R8        2.63950  -0.00106   0.00000   0.00554   0.00554   2.64504
    R9        2.28888  -0.00015   0.00000   0.00625   0.00625   2.29513
   R10        2.63255  -0.00227   0.00000  -0.00205  -0.00205   2.63050
   R11        2.07322   0.00029   0.00000   0.00041   0.00041   2.07363
   R12        2.08048  -0.00005   0.00000  -0.00028  -0.00028   2.08019
   R13        2.89559  -0.00095   0.00000   0.00505   0.00504   2.90063
   R14        2.08086   0.00005   0.00000  -0.00014  -0.00014   2.08072
   R15        2.07136  -0.00020   0.00000  -0.00055  -0.00055   2.07080
   R16        2.02201   0.01033   0.00000   0.03072   0.03072   2.05272
   R17        2.02201   0.01350   0.00000   0.05354   0.05354   2.07554
   R18        2.91018  -0.01339   0.00000  -0.05442  -0.05442   2.85576
   R19        2.02201   0.01824   0.00000   0.04701   0.04701   2.06902
   R20        2.02201   0.01791   0.00000   0.04432   0.04432   2.06633
   R21        2.70231  -0.00454   0.00000  -0.01881  -0.01881   2.68350
   R22        1.81414  -0.00601   0.00000  -0.01041  -0.01041   1.80373
    A1        1.99137  -0.00020   0.00000  -0.01549  -0.01557   1.97580
    A2        2.06513  -0.01030   0.00000  -0.00292  -0.00291   2.06223
    A3        1.69498   0.03557   0.00000   0.01108   0.01117   1.70616
    A4        2.08926   0.00165   0.00000   0.01436   0.01444   2.10370
    A5        1.61356  -0.00766   0.00000   0.01131   0.01137   1.62493
    A6        1.88673  -0.01000   0.00000  -0.01527  -0.01533   1.87140
    A7        1.88100   0.13066   0.00000   0.16511   0.16511   2.04611
    A8        1.87830  -0.00039   0.00000   0.00133   0.00133   1.87963
    A9        1.96292   0.00580   0.00000  -0.01007  -0.01013   1.95279
   A10        1.48161  -0.00232   0.00000   0.00378   0.00378   1.48540
   A11        2.56641  -0.00136   0.00000   0.00082   0.00082   2.56723
   A12        1.92366   0.00625   0.00000  -0.00032  -0.00042   1.92325
   A13        1.93231  -0.00007   0.00000   0.00189   0.00191   1.93422
   A14        1.93471   0.00119   0.00000   0.00009   0.00005   1.93477
   A15        1.85228  -0.00167   0.00000   0.00044   0.00046   1.85273
   A16        1.88193  -0.00022   0.00000   0.00019   0.00019   1.88211
   A17        1.94643   0.00082   0.00000  -0.00217  -0.00216   1.94427
   A18        1.91685  -0.00002   0.00000  -0.00045  -0.00047   1.91637
   A19        1.86842  -0.00408   0.00000   0.00266   0.00265   1.87107
   A20        1.92513   0.00129   0.00000  -0.00184  -0.00186   1.92327
   A21        1.92109   0.00142   0.00000   0.00155   0.00158   1.92267
   A22        1.91667   0.00472   0.00000   0.00040   0.00041   1.91709
   A23        1.95095  -0.00266   0.00000  -0.00025  -0.00027   1.95068
   A24        1.88203  -0.00060   0.00000  -0.00252  -0.00252   1.87950
   A25        1.91063   0.00901   0.00000   0.03854   0.03805   1.94868
   A26        1.91063   0.00721   0.00000   0.01491   0.01496   1.92559
   A27        1.91063  -0.00935   0.00000   0.00589   0.00557   1.91620
   A28        1.91063   0.00109   0.00000  -0.03967  -0.03995   1.87068
   A29        1.91063  -0.00265   0.00000   0.01455   0.01391   1.92455
   A30        1.91063  -0.00531   0.00000  -0.03422  -0.03429   1.87634
   A31        1.91063  -0.00314   0.00000  -0.02006  -0.02014   1.89050
   A32        1.91063  -0.00054   0.00000  -0.00359  -0.00377   1.90687
   A33        1.91063   0.00105   0.00000   0.00951   0.00950   1.92013
   A34        1.91063   0.00032   0.00000  -0.01018  -0.01041   1.90022
   A35        1.91063   0.00119   0.00000   0.00940   0.00947   1.92010
   A36        1.91063   0.00112   0.00000   0.01492   0.01488   1.92551
   A37        1.91114  -0.00479   0.00000  -0.02148  -0.02148   1.88965
    D1       -1.66714  -0.00980   0.00000   0.39444   0.39454  -1.27260
    D2        2.01439   0.00533   0.00000   0.39720   0.39714   2.41153
    D3        0.00687  -0.00188   0.00000   0.40944   0.40941   0.41627
    D4        1.63430   0.02716   0.00000   0.02875   0.02866   1.66296
    D5       -2.05532   0.00779   0.00000   0.01997   0.01986  -2.03546
    D6       -0.09208  -0.00847   0.00000   0.01311   0.01313  -0.07894
    D7        1.24620  -0.01678   0.00000  -0.00546  -0.00552   1.24068
    D8       -1.32462   0.00010   0.00000   0.00720   0.00719  -1.31743
    D9       -3.13600   0.01553   0.00000  -0.00354  -0.00347  -3.13947
   D10       -2.30011   0.00264   0.00000   0.00503   0.00490  -2.29521
   D11       -0.29898   0.00494   0.00000  -0.00772  -0.00777  -0.30675
   D12        1.83728   0.00097   0.00000   0.00857   0.00849   1.84577
   D13       -0.95957  -0.00706   0.00000  -0.13449  -0.13422  -1.09380
   D14        1.13482   0.00421   0.00000  -0.15034  -0.15031   0.98451
   D15       -3.05397  -0.00361   0.00000  -0.17951  -0.17981   3.04941
   D16       -1.68060  -0.00028   0.00000  -0.00018  -0.00018  -1.68079
   D17        0.41565   0.00810   0.00000  -0.01521  -0.01518   0.40046
   D18       -1.66905   0.00413   0.00000  -0.01625  -0.01622  -1.68527
   D19        2.53950   0.00317   0.00000  -0.01297  -0.01293   2.52657
   D20        0.07644  -0.00068   0.00000  -0.00314  -0.00314   0.07330
   D21        2.67575  -0.00074   0.00000  -0.00091  -0.00091   2.67484
   D22       -1.51967  -0.00028   0.00000   0.00062   0.00061  -1.51905
   D23        0.56088  -0.00066   0.00000   0.00038   0.00034   0.56123
   D24       -0.61958  -0.00187   0.00000   0.00799   0.00806  -0.61152
   D25        1.47056  -0.00008   0.00000   0.00758   0.00762   1.47818
   D26       -2.72454   0.00060   0.00000   0.00452   0.00456  -2.71998
   D27       -2.72534  -0.00120   0.00000   0.00666   0.00668  -2.71866
   D28       -0.63520   0.00059   0.00000   0.00625   0.00624  -0.62896
   D29        1.45289   0.00127   0.00000   0.00318   0.00318   1.45607
   D30        1.47266  -0.00144   0.00000   0.00811   0.00813   1.48079
   D31       -2.72039   0.00035   0.00000   0.00769   0.00769  -2.71270
   D32       -0.63230   0.00103   0.00000   0.00463   0.00463  -0.62767
   D33       -3.11641   0.00266   0.00000   0.05793   0.05794  -3.05847
   D34       -1.02202   0.00081   0.00000   0.03098   0.03113  -0.99089
   D35        1.07238   0.00249   0.00000   0.05287   0.05299   1.12536
   D36        1.07238  -0.00103   0.00000  -0.00179  -0.00187   1.07051
   D37       -3.11641  -0.00288   0.00000  -0.02874  -0.02868   3.13809
   D38       -1.02202  -0.00120   0.00000  -0.00684  -0.00683  -1.02884
   D39       -1.02202   0.00251   0.00000   0.05884   0.05867  -0.96334
   D40        1.07238   0.00065   0.00000   0.03189   0.03186   1.10424
   D41       -3.11641   0.00233   0.00000   0.05379   0.05372  -3.06269
   D42        2.94053  -0.00062   0.00000   0.01611   0.01606   2.95659
   D43        0.84613   0.00185   0.00000   0.02910   0.02910   0.87523
   D44       -1.24826   0.00004   0.00000   0.02667   0.02672  -1.22155
         Item               Value     Threshold  Converged?
 Maximum Force            0.130662     0.000450     NO 
 RMS     Force            0.015028     0.000300     NO 
 Maximum Displacement     0.712260     0.001800     NO 
 RMS     Displacement     0.220180     0.001200     NO 
 Predicted change in Energy=-1.968762D-02
 GradGradGradGradGradGradGradGradGradGradGradGradGradGradGradGradGradGrad

                          Input orientation:                          
 ---------------------------------------------------------------------
 Center     Atomic      Atomic             Coordinates (Angstroms)
 Number     Number       Type             X           Y           Z
 ---------------------------------------------------------------------
      1         14           0        0.364181   -0.250205    0.155959
      2          8           0        0.927947   -1.171298   -1.129184
      3          8           0        2.300289    0.947503   -0.151701
      4          1           0        2.825584    0.342663   -0.674017
      5          8           0       -0.458816    1.138654   -0.332444
      6          8           0        1.200294   -0.260940    1.512848
      7          1           0        2.018744    0.386918    0.891959
      8          8           0       -1.086866   -1.120856    0.446062
      9          6           0       -2.161667   -0.242438    0.550190
     10          1           0       -3.098633   -0.736845    0.264254
     11          1           0       -2.273204    0.119549    1.583759
     12          6           0       -1.842741    0.934961   -0.381519
     13          1           0       -2.155191    0.693459   -1.409335
     14          1           0       -2.369680    1.846885   -0.078936
     15          6           0       -0.022218   -1.892238   -1.867861
     16          1           0       -0.524887   -2.636145   -1.256406
     17          1           0       -0.795330   -1.216443   -2.257643
     18          6           0        0.644211   -2.552117   -3.052834
     19          1           0       -0.129841   -3.035315   -3.657913
     20          1           0        1.141327   -1.789074   -3.658044
     21          8           0        1.584988   -3.517439   -2.606038
     22          1           0        1.867388   -4.031061   -3.359365
 ---------------------------------------------------------------------
                    Distance matrix (angstroms):
                    1          2          3          4          5
     1  Si   0.000000
     2  O    1.678642   0.000000
     3  O    2.297319   2.707049   0.000000
     4  H    2.664369   2.469876   0.956337   0.000000
     5  O    1.686650   2.809588   2.771618   3.396698   0.000000
     6  O    1.593847   2.807714   2.332605   2.790750   2.848967
     7  H    1.919688   2.775409   1.217682   1.762166   2.864013
     8  O    1.716895   2.558009   4.013508   4.324781   2.471012
     9  C    2.556440   3.637141   4.670938   5.168530   2.363505
    10  H    3.498517   4.282962   5.670838   6.094427   3.292746
    11  H    3.021776   4.390184   4.961267   5.580768   2.828853
    12  C    2.562031   3.559781   4.149418   4.714831   1.399695
    13  H    3.112536   3.614076   4.636538   5.046967   2.058053
    14  H    3.453542   4.592035   4.756342   5.441284   2.053596
    15  C    2.634658   1.402929   4.050107   3.811827   3.425555
    16  H    2.911688   2.067048   4.695159   4.520855   3.886796
    17  H    2.846674   2.060373   4.324408   4.248494   3.060411
    18  C    3.958986   2.384868   4.838027   4.335540   4.715822
    19  H    4.748317   3.314806   5.836256   5.389704   5.346866
    20  H    4.185534   2.611956   4.596356   4.035523   4.710804
    21  O    4.449024   2.849066   5.145010   4.491344   5.570060
    22  H    5.376988   3.746264   5.938232   5.220986   6.426463
                    6          7          8          9         10
     6  O    0.000000
     7  H    1.214530   0.000000
     8  O    2.666194   3.480951   0.000000
     9  C    3.497118   4.241312   1.391999   0.000000
    10  H    4.501805   5.276779   2.056143   1.097316   0.000000
    11  H    3.494995   4.355558   2.059213   1.100791   1.776468
    12  C    3.778739   4.102824   2.341500   1.534948   2.188429
    13  H    4.550749   4.776155   2.806342   2.171563   2.395152
    14  H    4.440880   4.725717   3.275473   2.191880   2.706439
    15  C    3.947767   4.120277   2.661342   3.625749   3.917291
    16  H    4.035668   4.497159   2.347407   3.416530   3.541739
    17  H    4.371739   4.517717   2.721056   3.271008   3.448939
    18  C    5.138499   5.107705   4.157812   5.117553   5.320448
    19  H    6.016908   6.085181   4.628569   5.443952   5.429556
    20  H    5.392291   5.119310   4.717525   5.568761   5.871020
    21  O    5.264788   5.260050   4.711446   5.892778   6.156832
    22  H    6.196554   6.133123   5.628337   6.772855   6.974513
                   11         12         13         14         15
    11  H    0.000000
    12  C    2.170833   0.000000
    13  H    3.049904   1.101070   0.000000
    14  H    2.399490   1.095822   1.773798   0.000000
    15  C    4.585619   3.676489   3.383142   4.763598   0.000000
    16  H    4.326315   3.905761   3.710464   4.988713   1.086255
    17  H    4.327281   3.040633   2.493306   4.075453   1.098330
    18  C    6.094842   5.047828   4.590371   6.105638   1.511201
    19  H    6.482461   5.425115   4.802281   6.454597   2.126616
    20  H    6.540518   5.201985   4.699649   6.193334   2.137578
    21  O    6.757790   6.043317   5.757839   7.127525   2.401936
    22  H    7.668542   6.877063   6.504218   7.953880   3.220211
                   16         17         18         19         20
    16  H    0.000000
    17  H    1.758172   0.000000
    18  C    2.144995   2.118639   0.000000
    19  H    2.466299   2.389963   1.094878   0.000000
    20  H    3.043298   2.457574   1.093453   1.780164   0.000000
    21  O    2.655138   3.328945   1.420048   2.068701   2.071424
    22  H    3.477241   4.028142   1.943553   2.251570   2.375474
                   21         22
    21  O    0.000000
    22  H    0.954494   0.000000
 Stoichiometry    C4H11O6Si(1-)
 Framework group  C1[X(C4H11O6Si)]
 Deg. of freedom    60
 Full point group                 C1      NOp   1
 Largest Abelian subgroup         C1      NOp   1
 Largest concise Abelian subgroup C1      NOp   1
                         Standard orientation:                         
 ---------------------------------------------------------------------
 Center     Atomic      Atomic             Coordinates (Angstroms)
 Number     Number       Type             X           Y           Z
 ---------------------------------------------------------------------
      1         14           0       -0.714568    0.486801    0.243649
      2          8           0        0.934366    0.438003   -0.066953
      3          8           0       -0.617891    2.531269   -0.799653
      4          1           0        0.318202    2.724528   -0.768686
      5          8           0       -1.652061   -0.026870   -1.060972
      6          8           0       -1.259108    1.603411    1.242152
      7          1           0       -1.003068    2.381934    0.345811
      8          8           0       -0.843107   -1.023157    1.050641
      9          6           0       -1.902719   -1.758877    0.527574
     10          1           0       -1.731590   -2.835066    0.656551
     11          1           0       -2.845326   -1.504052    1.035803
     12          6           0       -1.993687   -1.380259   -0.957160
     13          1           0       -1.293148   -1.995164   -1.543241
     14          1           0       -2.999594   -1.547722   -1.358325
     15          6           0        1.541637   -0.825802   -0.114172
     16          1           0        1.473441   -1.339145    0.840699
     17          1           0        1.044335   -1.460457   -0.859983
     18          6           0        2.987533   -0.683489   -0.529937
     19          1           0        3.413634   -1.685817   -0.641901
     20          1           0        3.036722   -0.168572   -1.493305
     21          8           0        3.707245    0.043315    0.455105
     22          1           0        4.638199   -0.022869    0.255099
 ---------------------------------------------------------------------
 Rotational constants (GHZ):           1.3146724           0.6881254           0.5548872
 Standard basis: def2TZVPP (5D, 7F)
 There are   573 symmetry adapted cartesian basis functions of A   symmetry.
 There are   506 symmetry adapted basis functions of A   symmetry.
   506 basis functions,   766 primitive gaussians,   573 cartesian basis functions
    49 alpha electrons       49 beta electrons
       nuclear repulsion energy       842.1243576268 Hartrees.
 NAtoms=   22 NActive=   22 NUniq=   22 SFac= 1.00D+00 NAtFMM=   60 NAOKFM=F Big=F
 Integral buffers will be    131072 words long.
 Raffenetti 2 integral format.
 Two-electron integral symmetry is turned on.
 Nuclear repulsion after empirical dispersion term =      842.1122985125 Hartrees.
 One-electron integrals computed using PRISM.
   1 Symmetry operations used in ECPInt.
 ECPInt:  NShTT=   18145 NPrTT=   50058 LenC2=   16875 LenP2D=   35789.
 LDataN:  DoStor=T MaxTD1= 6 Len=  172
 NBasis=   506 RedAO= T EigKep=  2.45D-04  NBF=   506
 NBsUse=   506 1.00D-06 EigRej= -1.00D+00 NBFU=   506
 Initial guess from the checkpoint file:  "Convert_PbiLQbiLCollapseTS_to_PbiLmLQbiLmLCollapse_calcfc.chk"
 B after Tr=     0.000000    0.000000   -0.000000
         Rot=    0.999735    0.008414    0.021400    0.000553 Ang=   2.64 deg.
 ExpMin= 7.01D-02 ExpMax= 4.48D+04 ExpMxC= 1.53D+03 IAcc=3 IRadAn=         5 AccDes= 0.00D+00
 Harris functional with IExCor= 4639 and IRadAn=       5 diagonalized for initial guess.
 HarFok:  IExCor= 4639 AccDes= 0.00D+00 IRadAn=         5 IDoV= 1 UseB2=F ITyADJ=14
 ICtDFT=  3500011 ScaDFX=  1.000000  1.000000  1.000000  1.000000
 FoFCou: FMM=F IPFlag=           0 FMFlag=      100000 FMFlg1=           0
         NFxFlg=           0 DoJE=T BraDBF=F KetDBF=T FulRan=T
         wScrn=  0.000000 ICntrl=       500 IOpCl=  0 I1Cent=   200000004 NGrid=           0
         NMat0=    1 NMatS0=      1 NMatT0=    0 NMatD0=    1 NMtDS0=    0 NMtDT0=    0
 Petite list used in FoFCou.
 Requested convergence on RMS density matrix=1.00D-08 within 128 cycles.
 Requested convergence on MAX density matrix=1.00D-06.
 Requested convergence on             energy=1.00D-06.
 No special actions if energy rises.
 Integral accuracy reduced to 1.0D-05 until final iterations.
 Initial convergence to 1.0D-05 achieved.  Increase integral accuracy.
 SCF Done:  E(RwB97XD) =  -900.150362481     A.U. after   14 cycles
            NFock= 14  Conv=0.59D-08     -V/T= 2.0035
   1 Symmetry operations used in ECPInt.
 ECPInt:  NShTT=   18145 NPrTT=   50058 LenC2=   16875 LenP2D=   35789.
 LDataN:  DoStor=T MaxTD1= 7 Len=  274
 Calling FoFJK, ICntrl=      2127 FMM=F ISym2X=0 I1Cent= 0 IOpClX= 0 NMat=1 NMatS=1 NMatT=0.
 ***** Axes restored to original set *****
 -------------------------------------------------------------------
 Center     Atomic                   Forces (Hartrees/Bohr)
 Number     Number              X              Y              Z
 -------------------------------------------------------------------
      1       14           0.004576153   -0.002237877    0.004138427
      2        8          -0.007457733   -0.001398057    0.000167827
      3        8           0.000417916    0.000706385    0.000605713
      4        1          -0.000242814   -0.000143769    0.000140220
      5        8          -0.001880058   -0.001842653   -0.001204434
      6        8           0.001124974    0.000698332   -0.001441954
      7        1           0.000470004    0.000436110   -0.000569049
      8        8          -0.004183676    0.004243947    0.003697170
      9        6           0.000032073    0.000803514   -0.000003978
     10        1           0.000165988   -0.000122598   -0.000108885
     11        1          -0.000257778    0.000113894   -0.000017038
     12        6          -0.000487080    0.000227681    0.000607491
     13        1          -0.000197750    0.000188142    0.000144191
     14        1           0.000198486    0.000081765    0.000200865
     15        6           0.010354915    0.004296918   -0.005700147
     16        1          -0.000647453   -0.003870637    0.001315193
     17        1          -0.001361230   -0.001622903   -0.001777601
     18        6           0.001638466   -0.001261308    0.003002964
     19        1          -0.002295616    0.000126742   -0.001820146
     20        1           0.000697479    0.001534140   -0.001062834
     21        8          -0.001336298   -0.001769794   -0.000101282
     22        1           0.000671030    0.000812026   -0.000212713
 -------------------------------------------------------------------
 Cartesian Forces:  Max     0.010354915 RMS     0.002400978

 GradGradGradGradGradGradGradGradGradGradGradGradGradGradGradGradGradGrad
 Berny optimization.
 FormGI is forming the generalized inverse of G from B-inverse, IUseBI=4.
 Internal  Forces:  Max     0.027930124 RMS     0.003317262
 Search for a saddle point.
 Step number   2 out of a maximum of  113
 All quantities printed in internal units (Hartrees-Bohrs-Radians)
 Swapping is turned off.
 Update second derivatives using D2CorX and points    1    2
 ITU=  0  0
     Eigenvalues ---   -0.09921   0.00023   0.00064   0.00142   0.00321
     Eigenvalues ---    0.00363   0.00930   0.02803   0.03232   0.03469
     Eigenvalues ---    0.04191   0.04504   0.04621   0.04900   0.05013
     Eigenvalues ---    0.05433   0.05672   0.06696   0.06817   0.07387
     Eigenvalues ---    0.08643   0.09319   0.09461   0.09841   0.09981
     Eigenvalues ---    0.10465   0.10517   0.11313   0.12203   0.13372
     Eigenvalues ---    0.14247   0.15274   0.15359   0.16155   0.19189
     Eigenvalues ---    0.21306   0.22080   0.22805   0.24506   0.26131
     Eigenvalues ---    0.26811   0.27365   0.27624   0.29275   0.30103
     Eigenvalues ---    0.30552   0.31759   0.32074   0.33426   0.34427
     Eigenvalues ---    0.35382   0.37449   0.37793   0.38964   0.39446
     Eigenvalues ---    0.40348   0.53667   0.53824   0.55623   1.17372
 Eigenvectors required to have negative eigenvalues:
                          R9        R7        A11       A10       D2
   1                    0.53511  -0.46943   0.41434   0.28111   0.19987
                          D5        D7        A6        R3        D8
   1                   -0.19200  -0.17474   0.16048  -0.15330   0.14889
 RFO step:  Lambda0=8.446492504D-05 Lambda=-5.19716947D-03.
 Linear search not attempted -- option 19 set.
 Iteration  1 RMS(Cart)=  0.11031246 RMS(Int)=  0.02950073
 Iteration  2 RMS(Cart)=  0.09609957 RMS(Int)=  0.00516922
 Iteration  3 RMS(Cart)=  0.00676663 RMS(Int)=  0.00016887
 Iteration  4 RMS(Cart)=  0.00003515 RMS(Int)=  0.00016834
 Iteration  5 RMS(Cart)=  0.00000000 RMS(Int)=  0.00016834
 Variable       Old X    -DE/DX   Delta X   Delta X   Delta X     New X
                                 (Linear)    (Quad)   (Total)
    R1        3.17217   0.00656   0.00000  -0.01451  -0.01451   3.15766
    R2        3.18731   0.00118   0.00000   0.00109   0.00094   3.18825
    R3        3.01194  -0.00016   0.00000   0.00302   0.00302   3.01495
    R4        3.24446   0.00302   0.00000   0.00581   0.00575   3.25021
    R5        2.65115  -0.00098   0.00000  -0.02344  -0.02344   2.62771
    R6        1.80721  -0.00012   0.00000  -0.00057  -0.00057   1.80664
    R7        2.30109  -0.00034   0.00000   0.07561   0.07561   2.37669
    R8        2.64504  -0.00053   0.00000  -0.00015  -0.00017   2.64487
    R9        2.29513   0.00088   0.00000  -0.08088  -0.08088   2.21425
   R10        2.63050  -0.00011   0.00000   0.00056   0.00068   2.63118
   R11        2.07363  -0.00006   0.00000  -0.00144  -0.00144   2.07219
   R12        2.08019   0.00005   0.00000   0.00007   0.00007   2.08026
   R13        2.90063  -0.00130   0.00000  -0.00252  -0.00239   2.89824
   R14        2.08072  -0.00012   0.00000  -0.00085  -0.00085   2.07987
   R15        2.07080   0.00003   0.00000   0.00013   0.00013   2.07093
   R16        2.05272   0.00369   0.00000   0.01435   0.01435   2.06708
   R17        2.07554   0.00059   0.00000   0.01024   0.01024   2.08579
   R18        2.85576   0.00012   0.00000   0.00369   0.00369   2.85945
   R19        2.06902   0.00257   0.00000   0.00989   0.00989   2.07891
   R20        2.06633   0.00197   0.00000   0.00682   0.00682   2.07315
   R21        2.68350   0.00011   0.00000  -0.00325  -0.00325   2.68025
   R22        1.80373  -0.00007   0.00000   0.00035   0.00035   1.80408
    A1        1.97580  -0.00009   0.00000   0.00137   0.00155   1.97735
    A2        2.06223  -0.00331   0.00000  -0.02685  -0.02696   2.03527
    A3        1.70616   0.00900   0.00000   0.02659   0.02679   1.73295
    A4        2.10370   0.00093   0.00000   0.01498   0.01489   2.11859
    A5        1.62493  -0.00375   0.00000  -0.01265  -0.01317   1.61177
    A6        1.87140  -0.00041   0.00000   0.00661   0.00699   1.87839
    A7        2.04611   0.02793   0.00000   0.05885   0.05885   2.10496
    A8        1.87963  -0.00039   0.00000   0.00416   0.00416   1.88379
    A9        1.95279   0.00311   0.00000   0.01703   0.01611   1.96889
   A10        1.48540   0.00263   0.00000   0.02814   0.02814   1.51353
   A11        2.56723   0.00130   0.00000   0.00756   0.00756   2.57480
   A12        1.92325   0.00206   0.00000   0.00140   0.00092   1.92417
   A13        1.93422   0.00019   0.00000  -0.00068  -0.00062   1.93360
   A14        1.93477   0.00011   0.00000  -0.00073  -0.00055   1.93422
   A15        1.85273  -0.00040   0.00000  -0.00070  -0.00108   1.85165
[...]
 0.00200239,-0.00129248,0.00052345,-0.00001483,0.00026067,0.00149154,0.
 00336512,0.00631273,-0.01604679,0.04840011,-0.13699393,0.00046762,-0.0
 0867125,0.00384565,-0.00427234,0.02559717,-0.02141181,0.01565021,0.062
 14168,0.54316132,0.00308009,-0.00718210,-0.00144922,0.00004125,0.00080
 559,0.00141602,-0.00072896,-0.00012232,0.00039584,-0.00021927,-0.00008
 116,-0.00006480,-0.03088234,-0.01764250,-0.02711172,-0.00123845,0.0010
 0213,-0.00045851,0.00030022,0.00005012,0.00001176,0.00130665,0.0006752
 6,0.00025654,0.00023281,-0.00107267,-0.00148908,0.00066024,0.00009832,
 0.00046756,0.00067532,-0.00009828,-0.00006609,-0.06373135,-0.01418500,
 -0.05453013,0.08388271,0.00263133,-0.00377376,0.00054310,-0.00018369,0
 .00040745,0.00060891,-0.00039375,-0.00012160,0.00015638,-0.00008640,-0
 .00000354,-0.00003590,-0.01775381,-0.00238361,-0.00998333,-0.00051470,
 0.00046205,-0.00035046,0.00015492,-0.00000574,0.00003189,-0.00063372,0
 .00125072,-0.00192260,0.00514228,0.00813967,0.02512154,0.00001502,0.00
 145790,-0.00052666,0.00116961,-0.00295431,0.00391187,-0.01633313,-0.08
 124969,-0.07621598,0.03144967,0.08577412,0.00240672,-0.00189529,-0.000
 09351,-0.00012713,0.00042939,0.00105869,-0.00023428,-0.00016447,0.0001
 3415,-0.00002375,0.00001094,-0.00001930,-0.00579227,0.00034686,0.01171
 644,-0.00042577,0.00004372,0.00012983,0.00011131,0.00014167,-0.0001354
 8,-0.00079592,0.00090202,0.00245109,-0.00215270,-0.00865793,-0.0225037
 9,0.00058598,0.00048580,0.00075776,-0.00067391,0.00412654,-0.00185493,
 -0.05683068,-0.07336880,-0.24532710,0.06630644,0.08106244,0.26324240,0
 .00211980,-0.00356887,0.00387513,-0.00122924,0.00155067,0.00099961,-0.
 00084853,-0.00065148,-0.00020126,0.00002475,0.00001686,-0.00004084,-0.
 03970206,0.01441117,0.00828568,-0.00053366,0.00018979,-0.00075351,0.00
 010681,0.00000049,0.00021090,0.00120144,0.00079669,-0.00032649,0.00019
 776,0.00310510,0.00080488,-0.00061937,0.00084929,-0.00071816,0.0003584
 5,-0.00018364,-0.00059692,-0.13784029,0.10835228,0.04639969,0.00733622
 ,-0.00430392,-0.00192444,0.16971125,-0.00251360,-0.00261131,0.00124644
 ,0.00018939,0.00052129,-0.00017153,-0.00006773,0.00012369,-0.00025360,
 -0.00001069,-0.00004245,-0.00001511,-0.01557399,0.01496905,0.00601117,
 0.00045156,0.00063028,-0.00004778,-0.00007947,-0.00027774,0.00031137,0
 .00356163,-0.00328296,0.00353319,0.01402130,-0.01116745,-0.01288603,-0
 .00067819,-0.00070534,0.00062574,-0.00001969,0.00150162,0.00054913,0.1
 1423387,-0.18039769,-0.05723814,0.00676684,-0.00701158,-0.00311302,-0.
 12015560,0.18763686,-0.00069359,0.00237286,-0.00176528,0.00014391,-0.0
 0024957,0.00054251,0.00020253,0.00010998,0.00008770,-0.00000577,-0.000
 02445,0.00000193,0.00671692,0.00130145,0.00332896,-0.00000645,-0.00030
 717,0.00009770,-0.00002978,0.00006881,-0.00012094,-0.00357403,0.004316
 00,-0.00144496,-0.01419857,0.01307241,0.00776852,0.00079764,0.00044725
 ,-0.00016256,-0.00029819,-0.00061384,0.00104869,0.04915358,-0.05947100
 ,-0.07899116,0.01718075,-0.02212304,-0.00863725,-0.05512873,0.06127162
 ,0.07864596,0.00920353,-0.00373736,0.00324168,-0.10284226,-0.00545156,
 -0.07310236,0.00074005,0.00214550,0.00063622,-0.00068836,-0.00062480,-
 0.00030602,-0.00444514,0.00180759,-0.00075816,0.00002074,0.00181345,0.
 00306346,-0.00020886,-0.00023225,-0.00012628,-0.00532682,-0.00018395,0
 .00079986,0.00058458,-0.00110547,0.00040823,-0.00038747,0.00003291,0.0
 0006594,-0.00021513,0.00021246,-0.00005094,0.00099724,0.00102553,0.001
 37577,-0.00083796,-0.00029463,-0.00036044,-0.00036103,-0.00014114,-0.0
 0040248,0.57403188,-0.00201683,-0.00569751,-0.01261182,-0.00019931,-0.
 06786546,-0.02482512,-0.00000390,-0.00146683,0.00035418,-0.00026550,-0
 .00018548,-0.00030856,-0.00064773,0.00024367,0.00045055,0.00034144,0.0
 0091936,-0.00029120,0.00004275,0.00023263,0.00032274,-0.00146325,-0.00
 137667,0.00037301,-0.00008803,0.00009498,-0.00014839,-0.00020745,-0.00
 008418,0.00005463,0.00001827,-0.00009503,0.00010067,0.00022456,0.00012
 190,-0.00045569,0.00034681,0.00008127,0.00011440,-0.00014724,0.0001002
 0,0.00028427,-0.04516251,0.50707674,0.01073263,-0.01637904,-0.03902844
 ,-0.06037116,-0.02599244,-0.21523696,0.00249064,0.00680932,0.00154733,
 -0.00161438,-0.00190823,0.00066853,-0.00792725,0.00332919,-0.00040841,
 -0.00043584,0.00159367,0.00425740,-0.00016734,-0.00064482,-0.00106072,
 -0.00818492,-0.00240975,0.00367839,0.00247123,-0.00128358,0.00027309,-
 0.00080194,-0.00013790,0.00021170,-0.00062660,0.00046841,0.00025229,0.
 00255648,0.00146619,0.00136520,-0.00114519,-0.00039802,-0.00053164,-0.
 00091177,0.00000154,-0.00028553,-0.04734174,-0.01596123,0.52837253,-0.
 00336015,0.00320949,0.00225318,-0.00997263,0.00346133,-0.01692208,-0.0
 0003645,-0.00083954,0.00049897,-0.00000484,0.00024302,-0.00014354,0.00
 022424,-0.00042503,0.00121443,0.00013416,-0.00074664,-0.00041859,0.000
 15807,0.00045583,-0.00026984,0.00100645,0.00006146,-0.00027442,-0.0002
 9757,0.00008846,-0.00015360,0.00006518,-0.00003620,-0.00000921,0.00003
 954,-0.00003483,-0.00003548,0.00024925,0.00044757,0.00061676,-0.000084
 59,-0.00008478,-0.00012183,0.00005923,0.00000694,0.00001716,-0.1964244
 8,0.11852778,-0.01811463,0.21523421,0.00052054,0.00116028,-0.00090084,
 -0.00548740,0.00719781,-0.00006923,0.00021353,0.00016664,0.00029196,-0
 .00004078,-0.00000545,0.00000668,-0.00067902,-0.00050546,-0.00028257,-
 0.00007294,-0.00012819,0.00017935,0.00003683,0.00010792,-0.00014729,-0
 .00031985,-0.00017492,-0.00011480,-0.00003094,-0.00007022,0.00006525,-
 0.00001263,-0.00003017,0.00003815,-0.00000284,0.00003013,-0.00005075,0
 .00070118,0.00032338,0.00024557,-0.00041215,0.00005556,-0.00006955,-0.
 00016324,-0.00009621,-0.00012233,0.11828749,-0.14761269,0.01833040,-0.
 13060977,0.15731057,-0.00750323,0.00434136,0.00084089,-0.03125578,0.01
 486210,-0.02121110,0.00011391,-0.00057707,-0.00001091,0.00018212,0.000
 24034,-0.00005365,0.00038903,0.00004941,0.00150552,0.00069497,-0.00071
 849,-0.00050280,0.00001569,0.00021552,-0.00001590,0.00110896,-0.000348
 66,0.00010035,-0.00022806,0.00026695,-0.00021082,0.00006128,-0.0000698
 1,0.00001853,0.00007305,-0.00005827,0.00004098,0.00093848,-0.00001648,
 -0.00081259,0.00032067,-0.00001370,0.00000539,-0.00008379,0.00003251,0
 .00016960,-0.01247538,0.01414406,-0.05273769,0.03003747,-0.01737571,0.
 06668808,-0.00093572,-0.00038229,-0.00191876,0.01549085,0.00262733,-0.
 01568740,0.00015895,0.00045550,-0.00015072,-0.00003902,-0.00015285,0.0
 0013868,0.00008097,0.00027121,0.00057575,0.00017882,-0.00000401,-0.000
 09602,-0.00004451,-0.00014402,0.00005266,0.00049786,0.00026136,0.00023
 359,0.00017438,0.00001598,-0.00019077,0.00001823,-0.00002699,-0.000027
 08,0.00000405,0.00000568,0.00006542,0.00013173,-0.00004847,-0.00028924
 ,0.00021298,-0.00002635,0.00002962,-0.00001629,0.00007032,0.00010327,-
 0.17404291,-0.03517351,0.11963602,-0.01622013,-0.00629611,0.01565893,0
 .18190878,0.00023628,0.00023496,0.00023508,0.00314694,0.00452339,-0.00
 761936,-0.00005855,-0.00016414,0.00039763,-0.00016775,0.00000144,-0.00
 011348,0.00005305,-0.00007862,-0.00048335,-0.00012616,-0.00026171,-0.0
 0006686,0.00009649,0.00024446,-0.00021989,0.00022330,0.00044564,0.0001
 2359,0.00007367,-0.00008975,0.00000297,0.00006283,0.00000899,-0.000027
 31,-0.00002481,0.00004441,-0.00000118,-0.00016335,-0.00007626,0.000173
 92,-0.00014531,-0.00001909,0.00003084,0.00001426,-0.00001631,-0.000061
 36,-0.03303511,-0.06412421,0.03547967,0.01488570,0.00567615,-0.0137200
 7,0.04114910,0.06259535,-0.00322038,0.00551912,0.00285443,0.00924510,-
 0.00299886,-0.04585972,-0.00048709,-0.00119440,0.00060018,0.00008530,0
 .00017912,-0.00026535,0.00083956,-0.00050380,0.00004271,-0.00039099,-0
 .00139313,-0.00094345,0.00031477,0.00075698,-0.00058358,0.00206439,0.0
 0014223,-0.00073564,-0.00035147,0.00037146,-0.00004122,0.00018066,0.00
 000324,-0.00002348,0.00010108,-0.00008565,-0.00007295,-0.00033825,-0.0
 0014812,-0.00009128,0.00006355,0.00005328,0.00007437,0.00011612,-0.000
 04536,-0.00000416,0.11679654,0.03566634,-0.15045534,-0.00027340,-0.000
 71390,0.00361443,-0.12418407,-0.03524486,0.18858515,0.00518532,0.00347
 691,-0.00316750,-0.00620523,-0.01588442,-0.00904866,-0.00028745,-0.000
 66441,0.00080189,-0.00009546,-0.00003849,-0.00008730,-0.00180411,-0.00
 105346,0.00186387,-0.00160084,-0.00082577,0.00046471,0.00026941,0.0006
 5808,-0.00072991,-0.00200552,-0.00636468,-0.00463101,-0.00190259,0.001
 06280,0.00080430,-0.00016278,0.00001802,0.00032546,0.00028892,-0.00032
 217,-0.00035514,0.00158753,0.00101801,0.00029035,-0.00021515,0.0001762
 0,-0.00049267,-0.00012523,-0.00027327,-0.00013041,-0.08562559,-0.02136
 125,-0.00484236,0.00679687,0.02726476,0.00361672,-0.00762240,-0.023732
 76,0.00033904,0.53030514,0.00193645,-0.00049374,-0.00365256,-0.0062040
 3,-0.00315649,-0.00643885,0.00010304,0.00006046,0.00060592,-0.00020034
 ,-0.00012584,-0.00016036,-0.00066080,-0.00013596,0.00054926,-0.0003567
 5,-0.00028192,0.00087668,0.00008410,0.00031410,-0.00045171,-0.00140181
 ,-0.00273286,-0.00114260,-0.00043163,0.00033233,0.00033691,-0.00012283
 ,0.00000318,0.00020089,0.00001260,-0.00004855,-0.00001258,0.00043821,0
 .00017169,-0.00033560,0.00010386,0.00009909,-0.00004554,-0.00007473,-0
 .00002570,0.00007681,-0.01711097,-0.19073066,-0.01726573,-0.00781720,-
 0.02294892,-0.00102141,0.00271155,-0.00240179,-0.00026545,-0.03815436,
 0.49962393,-0.00991902,-0.00291076,0.00452167,-0.01587040,-0.04141963,
 -0.02995613,-0.00026707,-0.00136793,-0.00079086,0.00029446,0.00031663,
 -0.00017956,0.00186776,0.00066578,-0.00039163,0.00149736,0.00050030,-0
 .00159612,-0.00014267,-0.00029222,0.00086943,0.00072571,0.00309742,0.0
 0237299,0.00099278,-0.00048229,-0.00044625,0.00022005,0.00006698,-0.00
 023949,-0.00023359,0.00033588,0.00031279,-0.00087048,-0.00070487,-0.00
 023171,0.00027977,-0.00022589,0.00031467,0.00011384,0.00025958,0.00013
 859,0.00352450,0.00040448,-0.07390564,0.00229930,0.00151204,0.00205448
 ,0.00734249,0.02224699,0.00135821,0.03941572,0.01108526,0.59967749,-0.
 00168429,0.00018441,0.00145667,0.00080851,-0.00420731,-0.00219081,-0.0
 0014684,-0.00037852,-0.00016197,0.00009136,0.00009299,-0.00001772,0.00
 038785,0.00002050,-0.00012260,0.00021466,-0.00003138,-0.00031683,0.000
 00554,-0.00001628,0.00012385,0.00055418,0.00113828,0.00063361,0.000217
 63,-0.00009505,-0.00007275,0.00003120,-0.00002215,-0.00004020,-0.00003
 713,0.00001435,0.00001927,-0.00011515,-0.00010806,0.00002190,0.0000246
 6,0.00001416,0.00001434,0.00003809,0.00001502,-0.00001016,-0.00268246,
 0.00310372,-0.00799514,0.00037914,-0.00023013,0.00046935,-0.00052088,-
 0.00012667,-0.00006520,-0.07331197,-0.01149142,-0.08102339,0.08218752,
 -0.00209424,0.00058040,0.00172743,-0.00209695,-0.00771595,-0.00442794,
 -0.00017504,-0.00056504,-0.00013973,0.00011900,0.00013046,-0.00003659,
 0.00045084,-0.00005762,0.00001401,0.00015875,-0.00011056,-0.00051046,0
 .00002104,0.00004880,0.00011923,0.00047680,0.00047066,0.00010465,0.000
 00886,0.00002811,-0.00003328,0.00003809,0.00000344,-0.00001800,0.00000
 516,-0.00001060,0.00000565,-0.00019513,-0.00011343,-0.00006010,0.00004
 614,0.00001747,0.00004265,0.00004598,0.00000651,0.00000382,-0.00898565
 ,0.00098186,-0.02908941,0.00122295,0.00060127,0.00043142,-0.00044869,0
 .00106468,0.00067044,-0.00923606,-0.05908597,-0.03534081,0.01523032,0.
 05660094,0.00005460,0.00142136,0.00090494,-0.00035729,-0.00213412,0.00
 013016,-0.00020731,-0.00047262,0.00002705,0.00008474,0.00009644,-0.000
 01598,0.00027040,-0.00033460,0.00007904,-0.00025947,-0.00032539,-0.000
 14889,0.00006378,0.00017294,-0.00009399,0.00012526,-0.00130019,-0.0010
 8712,-0.00060224,0.00027774,0.00016942,0.00002525,0.00004946,0.0000535
 2,0.00010498,-0.00009333,-0.00009096,-0.00014577,-0.00002566,-0.000083
 04,-0.00000430,0.00007751,0.00002759,0.00005037,-0.00007453,-0.0000119
 2,-0.00159332,0.00243678,-0.00453507,0.00035956,-0.00043729,-0.0000104
 5,-0.00056374,-0.00076759,0.00075044,-0.07340466,-0.03543581,-0.264430
 67,0.07065512,0.03698119,0.30061438,-0.00104526,-0.00073050,0.00011399
 ,0.00102940,0.00018394,0.00157679,0.00012219,0.00014665,-0.00008431,-0
 .00001463,-0.00000899,-0.00000258,0.00044814,0.00017771,-0.00023512,0.
 00037914,0.00015866,0.00006354,-0.00005455,-0.00010950,0.00010550,0.00
 047312,0.00098422,0.00090901,0.00020530,-0.00023640,-0.00022514,0.0000
 7825,0.00001877,-0.00011555,-0.00002469,0.00007746,0.00009720,-0.00032
 624,-0.00024427,-0.00014930,0.00008784,-0.00006842,0.00016148,0.000017
 72,0.00007249,0.00007302,0.00643038,-0.00642445,-0.00077795,0.00027443
 ,-0.00219190,-0.00097701,0.00076685,0.00147330,0.00007828,-0.17893714,
 0.11251535,-0.04238236,-0.00598937,0.00702520,-0.00424661,0.21244061,0
 .00097854,-0.00043569,0.00040861,-0.00092573,0.00477277,0.00025599,-0.
 00008152,0.00017020,-0.00014525,0.00004281,-0.00003171,0.00006785,-0.0
 0010549,0.00006522,-0.00057360,-0.00017750,0.00012912,-0.00009280,-0.0
 0000994,-0.00008825,0.00006543,-0.00019980,0.00009145,-0.00010207,0.00
 006068,-0.00006062,0.00003739,-0.00000811,0.00002118,-0.00000324,-0.00
 001265,0.00001449,-0.00002746,-0.00018669,-0.00000930,0.00016015,-0.00
 011181,-0.00002743,0.00000198,0.00000812,-0.00001806,-0.00005233,0.027
 00355,-0.02464944,0.00993572,-0.00264392,-0.00569971,-0.00098735,-0.00
 043804,0.00059890,0.00035380,0.10891846,-0.14161775,0.03170813,-0.0043
 6072,0.00406899,-0.00148269,-0.12024019,0.15197605,0.00075714,-0.00028
 774,-0.00060992,0.00115025,0.00058626,0.00149406,0.00004465,0.00012446
 ,0.00002959,-0.00003234,-0.00003546,0.00000543,-0.00020001,-0.00001184
 ,0.00005832,-0.00010133,0.00007130,0.00012159,-0.00001412,-0.00002373,
 -0.00001796,-0.00039607,-0.00032710,-0.00029378,0.00003383,0.00007578,
 0.00007548,-0.00005372,-0.00000832,0.00005869,-0.00000699,-0.00001475,
 -0.00001171,0.00010589,0.00006316,-0.00000914,-0.00001731,0.00006256,-
 0.00004499,-0.00002490,-0.00001586,-0.00001089,0.00083962,-0.00424431,
 0.00146850,0.00043897,-0.00079824,0.00072481,-0.00021635,0.00014109,-0
 .00023519,-0.04542903,0.03346213,-0.06528343,-0.02159784,0.01929956,-0
 .00605496,0.03623305,-0.03668014,0.06509930,-0.00632034,0.00072966,0.0
 0425445,0.00347621,-0.00001899,-0.00447312,0.00014192,-0.00013621,-0.0
 0082657,0.00025819,0.00020518,0.00012983,0.00289905,0.00043325,-0.0007
 2643,0.00134069,0.00027744,-0.00086648,-0.00019586,-0.00044048,0.00066
 358,0.00653790,0.00224368,0.00057812,-0.00079985,-0.00114504,-0.001603
 73,0.00080322,0.00010281,-0.00059377,0.00052025,-0.00000142,0.00011890
 ,-0.00194107,-0.00118307,-0.00077710,0.00035404,-0.00015620,0.00088707
 ,0.00023092,0.00023969,0.00036611,-0.01884560,-0.00765510,0.01986593,0
 .00190922,-0.00055166,-0.00085333,-0.00022509,-0.00412512,-0.00054334,
 -0.18502992,-0.04629062,0.05479424,0.00309599,-0.00062373,0.00705536,-
 0.03515670,-0.00796384,0.02742560,0.28366851,0.00352827,0.00281691,0.0
 0078953,0.00158020,0.00295354,-0.00073741,-0.00040807,-0.00046709,-0.0
 0012502,0.00016680,0.00012179,0.00012742,-0.00015321,-0.00053577,-0.00
 033740,-0.00111821,-0.00052287,-0.00052567,0.00008142,0.00019456,-0.00
 011163,-0.00070936,-0.00477956,-0.01145120,-0.00292242,0.00040088,0.00
 029810,0.00060967,0.00008268,0.00011508,0.00072040,-0.00024948,-0.0004
 5736,0.00058472,0.00007535,0.00100516,-0.00042716,-0.00016052,-0.00049
 288,-0.00000570,-0.00030753,-0.00039449,-0.03517283,-0.00773688,0.0285
 0060,0.00059430,0.00512729,0.00023694,-0.00469683,-0.00774905,-0.00046
 961,-0.02918211,-0.08210162,-0.00128190,0.00456279,0.00394660,-0.00302
 396,0.00842395,0.01065199,-0.01103776,0.10564498,0.16873397,0.01216469
 ,0.00672855,-0.00906452,-0.00224776,0.00186545,0.01136592,-0.00034502,
 -0.00069406,0.00174681,-0.00023674,-0.00012152,-0.00015253,-0.00112282
 ,-0.00216613,0.00225866,-0.00328391,-0.00228998,0.00135089,0.00047993,
 0.00147754,-0.00180092,-0.00331072,-0.01995106,-0.01440325,-0.00618230
 ,0.00181279,0.00028235,0.00029122,0.00032130,0.00047968,0.00135771,-0.
 00087255,-0.00075495,0.00041704,0.00064936,-0.00088765,0.00014915,0.00
 004211,0.00002629,0.00001361,-0.00044894,0.00017920,0.00636514,0.00245
 108,-0.00930795,-0.00101479,-0.00025297,0.00001254,0.00062128,0.000991
 90,0.00158206,0.08819370,0.02468570,-0.14520619,0.03788550,0.01014337,
 -0.02737126,0.01227360,-0.00272406,0.00230566,-0.06208774,0.14356410,0
 .55383356,0.00233047,-0.00451806,-0.00335768,-0.00011742,0.00235921,-0
 .00115798,0.00005524,0.00040296,0.00021780,-0.00015028,-0.00014478,-0.
 00000309,-0.00164401,-0.00000260,0.00018040,-0.00057906,0.00017741,0.0
 0034604,-0.00001654,0.00001525,-0.00012384,-0.00928635,-0.00136429,-0.
 00088567,0.00172846,0.00329059,0.00365236,-0.00124000,-0.00012282,0.00
 063086,-0.00108691,0.00015490,0.00006634,0.00066667,0.00098972,0.00033
 205,-0.00025696,0.00008032,-0.00054715,-0.00012674,-0.00011569,-0.0002
 7673,0.00092567,-0.00178927,0.00350528,-0.00012917,0.00007705,-0.00030
 404,0.00004250,0.00029065,-0.00037020,0.00049819,0.01241232,0.03734102
 ,-0.00354824,-0.00099366,0.00253529,-0.00120478,0.00045378,0.00106103,
 -0.05672167,-0.05170159,-0.08038076,0.06986094,-0.00977306,-0.00859038
 ,0.00121447,0.00217670,-0.00099331,-0.00405250,0.00049931,0.00081088,-
 0.00072628,-0.00001696,-0.00005972,0.00002412,0.00008059,0.00161968,-0
 .00053619,0.00240136,0.00150756,-0.00004385,-0.00026981,-0.00085088,0.
 00090362,0.00095302,0.00325214,0.00702088,0.00631121,-0.00254853,-0.00
 224728,-0.00111315,0.00003896,-0.00017227,-0.00128894,0.00076196,0.000
 93991,0.00012599,-0.00075189,-0.00005331,0.00013573,-0.00003445,0.0000
 6822,-0.00008629,0.00047083,0.00009430,-0.00109026,0.00177244,0.005555
 44,0.00003309,-0.00048506,0.00008640,0.00027012,-0.00045741,-0.0006528
 7,0.00449994,0.00528298,0.01182684,-0.00330886,-0.00089103,0.00439438,
 -0.00100308,0.00007760,-0.00040104,-0.03958524,-0.09049517,-0.16521198
 ,0.04004860,0.09056279,-0.01300028,-0.00883345,0.01092223,0.00222045,-
 0.00132708,-0.00683026,0.00031892,0.00079713,-0.00182018,0.00021904,0.
 00011805,0.00010757,-0.00024888,0.00280032,-0.00278526,0.00371898,0.00
 279577,-0.00114146,-0.00048891,-0.00163909,0.00196218,0.00200587,0.014
 27453,-0.00073309,0.00905882,-0.00319894,-0.00110175,-0.00100940,-0.00
 038048,-0.00009488,-0.00174133,0.00110296,0.00105589,0.00053575,-0.000
 07395,0.00191381,-0.00051168,0.00012396,-0.00079067,-0.00015903,0.0004
 6762,-0.00057472,-0.00059984,0.00168912,0.00539844,0.00001562,0.000666
 05,-0.00020972,-0.00113355,-0.00149835,-0.00015060,0.00620289,-0.00565
 137,-0.02896267,0.00233500,0.00011291,0.00117777,-0.00248954,-0.000124
 08,0.00113053,-0.04278758,-0.14419065,-0.36647440,0.03753866,0.1419690
 0,0.38800125\\0.00001619,0.00002659,-0.00001004,-0.00000758,-0.0000231
 8,-0.00000489,0.00000306,-0.00000965,0.00000616,0.00000133,-0.00000438
 ,-0.00000083,-0.00000577,-0.00000258,-0.00000049,0.00000435,-0.0000073
 7,0.00001086,0.00000301,-0.00000196,0.00000341,-0.00000547,-0.00001146
 ,-0.00000766,-0.00000066,0.00000206,-0.00000064,-0.00000094,0.00000231
 ,0.00000013,0.00000041,0.00000094,0.00000021,0.00000118,0.00000643,0.0
 0000320,0.00000229,0.00000006,-0.00000029,0.00000194,0.00000303,0.0000
 0116,0.00001015,0.00000718,-0.00001361,-0.00000689,-0.00000038,0.00000
 430,-0.00000675,0.00000448,-0.00000075,0.00000830,-0.00000141,-0.00000
 184,-0.00000213,-0.00000490,-0.00000066,-0.00000145,0.00000347,0.00000
 325,-0.00002087,0.00001763,-0.00000578,0.00000632,-0.00000689,0.000014
 78\\\@
 The archive entry for this job was punched.


 LIFE IS A CONTINUAL STRUGGLE AGAINST THE TENDENCY TO PRODUCE ENTROPY.
 Job cpu time:       0 days  6 hours 17 minutes  5.7 seconds.
 Elapsed time:       0 days  1 hours 34 minutes 18.8 seconds.
 File lengths (MBytes):  RWF=    456 Int=      0 D2E=      0 Chk=     21 Scr=      1
 Normal termination of Gaussian 16 at Thu Mar 21 18:02:53 2024.
