 Entering Gaussian System, Link 0=/opt/software/gaussian/g16.c01/g16
 Initial command:
 /opt/software/gaussian/g16.c01/l1.exe "/scratch/arhender/17064888/Gau-203976.inp" -scrdir="/scratch/arhender/17064888/"
 Entering Link 1 = /opt/software/gaussian/g16.c01/l1.exe PID=    203977.
  
 Copyright (c) 1988-2019, Gaussian, Inc.  All Rights Reserved.
  
 This is part of the Gaussian(R) 16 program.  It is based on
 the Gaussian(R) 09 system (copyright 2009, Gaussian, Inc.),
 the Gaussian(R) 03 system (copyright 2003, Gaussian, Inc.),
 the Gaussian(R) 98 system (copyright 1998, Gaussian, Inc.),
 the Gaussian(R) 94 system (copyright 1995, Gaussian, Inc.),
 the Gaussian 92(TM) system (copyright 1992, Gaussian, Inc.),
 the Gaussian 90(TM) system (copyright 1990, Gaussian, Inc.),
 the Gaussian 88(TM) system (copyright 1988, Gaussian, Inc.),
 the Gaussian 86(TM) system (copyright 1986, Carnegie Mellon
 University), and the Gaussian 82(TM) system (copyright 1983,
 Carnegie Mellon University). Gaussian is a federally registered
 trademark of Gaussian, Inc.
  
 This software contains proprietary and confidential information,
 including trade secrets, belonging to Gaussian, Inc.
  
 This software is provided under written license and may be
 used, copied, transmitted, or stored only in accord with that
 written license.
  
 The following legend is applicable only to US Government
 contracts under FAR:
  
                    RESTRICTED RIGHTS LEGEND
  
 Use, reproduction and disclosure by the US Government is
 subject to restrictions as set forth in subparagraphs (a)
 and (c) of the Commercial Computer Software - Restricted
 Rights clause in FAR 52.227-19.
  
 Gaussian, Inc.
 340 Quinnipiac St., Bldg. 40, Wallingford CT 06492
  
  
 ---------------------------------------------------------------
 Warning -- This program may not be used in any manner that
 competes with the business of Gaussian, Inc. or will provide
 assistance to any competitor of Gaussian, Inc.  The licensee
 of this program is prohibited from giving any competitor of
 Gaussian, Inc. access to this program.  By using this program,
 the user acknowledges that Gaussian, Inc. is engaged in the
 business of creating and licensing software in the field of
 computational chemistry and represents and warrants to the
 licensee that it is not a competitor of Gaussian, Inc. and that
 it will not use this program in any manner prohibited above.
 ---------------------------------------------------------------
  

 Cite this work as:
 Gaussian 16, Revision C.01,
 M. J. Frisch, G. W. Trucks, H. B. Schlegel, G. E. Scuseria, 
 M. A. Robb, J. R. Cheeseman, G. Scalmani, V. Barone, 
 G. A. Petersson, H. Nakatsuji, X. Li, M. Caricato, A. V. Marenich, 
 J. Bloino, B. G. Janesko, R. Gomperts, B. Mennucci, H. P. Hratchian, 
 J. V. Ortiz, A. F. Izmaylov, J. L. Sonnenberg, D. Williams-Young, 
 F. Ding, F. Lipparini, F. Egidi, J. Goings, B. Peng, A. Petrone, 
 T. Henderson, D. Ranasinghe, V. G. Zakrzewski, J. Gao, N. Rega, 
 G. Zheng, W. Liang, M. Hada, M. Ehara, K. Toyota, R. Fukuda, 
 J. Hasegawa, M. Ishida, T. Nakajima, Y. Honda, O. Kitao, H. Nakai, 
 T. Vreven, K. Throssell, J. A. Montgomery, Jr., J. E. Peralta, 
 F. Ogliaro, M. J. Bearpark, J. J. Heyd, E. N. Brothers, K. N. Kudin, 
 V. N. Staroverov, T. A. Keith, R. Kobayashi, J. Normand, 
 K. Raghavachari, A. P. Rendell, J. C. Burant, S. S. Iyengar, 
 J. Tomasi, M. Cossi, J. M. Millam, M. Klene, C. Adamo, R. Cammi, 
 J. W. Ochterski, R. L. Martin, K. Morokuma, O. Farkas, 
 J. B. Foresman, and D. J. Fox, Gaussian, Inc., Wallingford CT, 2019.
 
 ******************************************
 Gaussian 16:  ES64L-G16RevC.01  3-Jul-2019
                18-Feb-2024 
 ******************************************
 %chk=QbiLmonoL_to_QbiL2_UnfreezeandTSopt.chk
 %mem=1600MB
 %nprocs=4
 Will use up to    4 processors via shared memory.
 ------------------------------------------------------------------
 # opt=(calcall,ts,noeigen) freq wb97xd/def2tzvpp geom=connectivity
 ------------------------------------------------------------------
 1/5=1,10=4,11=1,18=20,26=3,38=1,57=2/1,3;
 2/9=110,12=2,17=6,18=5,40=1/2;
 3/5=44,7=202,11=2,25=1,30=1,71=2,74=-58,140=1/1,2,3;
 4//1;
 5/5=2,38=5/2;
 8/6=4,10=90,11=11/1;
 11/6=1,8=1,9=11,15=111,16=1/1,2,10;
 10/6=1/2;
 6/7=2,8=2,9=2,10=2,18=1,28=1/1;
 7/10=1,25=1/1,2,3,16;
 1/5=1,10=4,11=1,18=20,26=3/3(3);
 2/9=110/2;
 7/8=1,9=1,25=1,44=-1/16;
 99//99;
 2/9=110/2;
 3/5=44,7=202,11=2,25=1,30=1,71=2,74=-58,140=1/1,2,3;
 4/5=5,16=3,69=1/1;
 5/5=2,38=5/2;
 8/6=4,10=90,11=11/1;
 11/6=1,8=1,9=11,15=111,16=1/1,2,10;
 10/6=1/2;
 7/10=1,25=1/1,2,3,16;
 1/5=1,10=4,11=1,18=20,26=3/3(-8);
 2/9=110/2;
 6/7=2,8=2,9=2,10=2,18=1,19=2,28=1/1;
 7/8=1,9=1,25=1,44=-1/16;
 99//99;
 ----------------------------------------------------------------------
 convert QmonoL to QbiL attacking OH deprotonated TS to QbiLmonoL to Qb
 iL2
 ----------------------------------------------------------------------
 Symbolic Z-matrix:
 Charge = -1 Multiplicity = 1
 Si                    0.23086   0.31655  -0.20969 
 O                     0.92251  -0.2298    1.21439 
 O                    -0.296     1.85309  -0.22986 
 H                    -1.17843   1.67337   0.26139 
 O                     1.65188   0.24025  -1.10704 
 O                    -0.71337  -0.81879  -0.93075 
 C                    -1.92237  -1.29452  -0.3793 
 H                    -1.69728  -1.95369   0.46924 
 H                    -2.43171  -1.8813   -1.15355 
 C                    -2.78599  -0.133     0.11494 
 H                    -3.14962   0.40654  -0.79047 
 H                    -3.69554  -0.58412   0.5743 
 O                    -2.07909   0.6526    0.96582 
 C                     2.74414  -0.041    -0.27792 
 H                     3.47575  -0.657    -0.81162 
 H                     3.24108   0.89078   0.02649 
 C                     2.19176  -0.76909   0.95544 
 H                     2.11293  -1.84602   0.75228 
 H                     2.83814  -0.63338   1.82811 
 
 Add virtual bond connecting atoms H4         and O3         Dist= 1.94D+00.

 GradGradGradGradGradGradGradGradGradGradGradGradGradGradGradGradGradGrad
 Berny optimization.
 Initialization pass.
                           ----------------------------
                           !    Initial Parameters    !
                           ! (Angstroms and Degrees)  !
 --------------------------                            --------------------------
 ! Name  Definition              Value          Derivative Info.                !
 --------------------------------------------------------------------------------
 ! R1    R(1,2)                  1.6748         calculate D2E/DX2 analytically  !
 ! R2    R(1,3)                  1.6245         calculate D2E/DX2 analytically  !
 ! R3    R(1,5)                  1.6824         calculate D2E/DX2 analytically  !
 ! R4    R(1,6)                  1.6433         calculate D2E/DX2 analytically  !
 ! R5    R(2,17)                 1.4032         calculate D2E/DX2 analytically  !
 ! R6    R(3,4)                  1.0258         calculate D2E/DX2 analytically  !
 ! R7    R(5,14)                 1.3999         calculate D2E/DX2 analytically  !
 ! R8    R(6,7)                  1.4114         calculate D2E/DX2 analytically  !
 ! R9    R(7,8)                  1.0978         calculate D2E/DX2 analytically  !
 ! R10   R(7,9)                  1.0969         calculate D2E/DX2 analytically  !
 ! R11   R(7,10)                 1.5295         calculate D2E/DX2 analytically  !
 ! R12   R(10,11)                1.1149         calculate D2E/DX2 analytically  !
 ! R13   R(10,12)                1.1144         calculate D2E/DX2 analytically  !
 ! R14   R(10,13)                1.3568         calculate D2E/DX2 analytically  !
 ! R15   R(14,15)                1.0952         calculate D2E/DX2 analytically  !
 ! R16   R(14,16)                1.099          calculate D2E/DX2 analytically  !
 ! R17   R(14,17)                1.5351         calculate D2E/DX2 analytically  !
 ! R18   R(17,18)                1.0988         calculate D2E/DX2 analytically  !
 ! R19   R(17,19)                1.0944         calculate D2E/DX2 analytically  !
 ! A1    A(2,1,3)              116.9401         calculate D2E/DX2 analytically  !
 ! A2    A(2,1,5)               95.159          calculate D2E/DX2 analytically  !
 ! A3    A(2,1,6)              112.6443         calculate D2E/DX2 analytically  !
 ! A4    A(3,1,5)              108.0723         calculate D2E/DX2 analytically  !
 ! A5    A(3,1,6)              117.4962         calculate D2E/DX2 analytically  !
 ! A6    A(5,1,6)              102.706          calculate D2E/DX2 analytically  !
 ! A7    A(1,2,17)             110.0002         calculate D2E/DX2 analytically  !
 ! A8    A(1,3,4)               96.1612         calculate D2E/DX2 analytically  !
 ! A9    A(1,5,14)             110.6248         calculate D2E/DX2 analytically  !
 ! A10   A(1,6,7)              123.6154         calculate D2E/DX2 analytically  !
 ! A11   A(6,7,8)              109.1924         calculate D2E/DX2 analytically  !
 ! A12   A(6,7,9)              107.5945         calculate D2E/DX2 analytically  !
 ! A13   A(6,7,10)             110.7301         calculate D2E/DX2 analytically  !
 ! A14   A(8,7,9)              108.6375         calculate D2E/DX2 analytically  !
 ! A15   A(8,7,10)             108.7837         calculate D2E/DX2 analytically  !
 ! A16   A(9,7,10)             111.8482         calculate D2E/DX2 analytically  !
 ! A17   A(7,10,11)            106.813          calculate D2E/DX2 analytically  !
 ! A18   A(7,10,12)            106.6578         calculate D2E/DX2 analytically  !
 ! A19   A(7,10,13)            110.3762         calculate D2E/DX2 analytically  !
 ! A20   A(11,10,12)           105.3341         calculate D2E/DX2 analytically  !
 ! A21   A(11,10,13)           113.5156         calculate D2E/DX2 analytically  !
 ! A22   A(12,10,13)           113.6492         calculate D2E/DX2 analytically  !
 ! A23   A(5,14,15)            110.2175         calculate D2E/DX2 analytically  !
 ! A24   A(5,14,16)            110.2753         calculate D2E/DX2 analytically  !
 ! A25   A(5,14,17)            106.8823         calculate D2E/DX2 analytically  !
 ! A26   A(15,14,16)           108.0455         calculate D2E/DX2 analytically  !
 ! A27   A(15,14,17)           111.4157         calculate D2E/DX2 analytically  !
 ! A28   A(16,14,17)           110.0172         calculate D2E/DX2 analytically  !
 ! A29   A(2,17,14)            106.9468         calculate D2E/DX2 analytically  !
 ! A30   A(2,17,18)            110.2384         calculate D2E/DX2 analytically  !
 ! A31   A(2,17,19)            109.8423         calculate D2E/DX2 analytically  !
 ! A32   A(14,17,18)           110.0073         calculate D2E/DX2 analytically  !
 ! A33   A(14,17,19)           111.6733         calculate D2E/DX2 analytically  !
 ! A34   A(18,17,19)           108.1403         calculate D2E/DX2 analytically  !
 ! D1    D(3,1,2,17)          -126.6153         calculate D2E/DX2 analytically  !
 ! D2    D(5,1,2,17)           -13.3319         calculate D2E/DX2 analytically  !
 ! D3    D(6,1,2,17)            92.7465         calculate D2E/DX2 analytically  !
 ! D4    D(2,1,3,4)            -79.7502         calculate D2E/DX2 analytically  !
 ! D5    D(5,1,3,4)            174.4703         calculate D2E/DX2 analytically  !
 ! D6    D(6,1,3,4)             58.9604         calculate D2E/DX2 analytically  !
 ! D7    D(2,1,5,14)            -7.981          calculate D2E/DX2 analytically  !
 ! D8    D(3,1,5,14)           112.5478         calculate D2E/DX2 analytically  !
 ! D9    D(6,1,5,14)          -122.6033         calculate D2E/DX2 analytically  !
 ! D10   D(2,1,6,7)             66.8981         calculate D2E/DX2 analytically  !
 ! D11   D(3,1,6,7)            -73.5045         calculate D2E/DX2 analytically  !
 ! D12   D(5,1,6,7)            168.0805         calculate D2E/DX2 analytically  !
 ! D13   D(1,2,17,14)           28.627          calculate D2E/DX2 analytically  !
 ! D14   D(1,2,17,18)          -90.9474         calculate D2E/DX2 analytically  !
 ! D15   D(1,2,17,19)          149.9865         calculate D2E/DX2 analytically  !
 ! D16   D(1,5,14,15)          145.9792         calculate D2E/DX2 analytically  !
 ! D17   D(1,5,14,16)          -94.8139         calculate D2E/DX2 analytically  !
 ! D18   D(1,5,14,17)           24.7545         calculate D2E/DX2 analytically  !
 ! D19   D(1,6,7,8)            -73.4434         calculate D2E/DX2 analytically  !
 ! D20   D(1,6,7,9)            168.8219         calculate D2E/DX2 analytically  !
 ! D21   D(1,6,7,10)            46.3113         calculate D2E/DX2 analytically  !
 ! D22   D(6,7,10,11)           70.1911         calculate D2E/DX2 analytically  !
 ! D23   D(6,7,10,12)         -177.5515         calculate D2E/DX2 analytically  !
 ! D24   D(6,7,10,13)          -53.6485         calculate D2E/DX2 analytically  !
 ! D25   D(8,7,10,11)         -169.8094         calculate D2E/DX2 analytically  !
 ! D26   D(8,7,10,12)          -57.552          calculate D2E/DX2 analytically  !
 ! D27   D(8,7,10,13)           66.3511         calculate D2E/DX2 analytically  !
 ! D28   D(9,7,10,11)          -49.8063         calculate D2E/DX2 analytically  !
 ! D29   D(9,7,10,12)           62.4511         calculate D2E/DX2 analytically  !
 ! D30   D(9,7,10,13)         -173.6459         calculate D2E/DX2 analytically  !
 ! D31   D(5,14,17,2)          -34.0561         calculate D2E/DX2 analytically  !
 ! D32   D(5,14,17,18)          85.667          calculate D2E/DX2 analytically  !
 ! D33   D(5,14,17,19)        -154.2503         calculate D2E/DX2 analytically  !
 ! D34   D(15,14,17,2)        -154.518          calculate D2E/DX2 analytically  !
 ! D35   D(15,14,17,18)        -34.7949         calculate D2E/DX2 analytically  !
 ! D36   D(15,14,17,19)         85.2879         calculate D2E/DX2 analytically  !
 ! D37   D(16,14,17,2)          85.6786         calculate D2E/DX2 analytically  !
 ! D38   D(16,14,17,18)       -154.5983         calculate D2E/DX2 analytically  !
 ! D39   D(16,14,17,19)        -34.5156         calculate D2E/DX2 analytically  !
 --------------------------------------------------------------------------------
 Trust Radius=3.00D-01 FncErr=1.00D-07 GrdErr=1.00D-06 EigMax=2.50D+02 EigMin=1.00D-04
 Number of steps in this run=    102 maximum allowed number of steps=    114.
 Search for a saddle point of order  1.
 GradGradGradGradGradGradGradGradGradGradGradGradGradGradGradGradGradGrad

                          Input orientation:                          
 ---------------------------------------------------------------------
 Center     Atomic      Atomic             Coordinates (Angstroms)
 Number     Number       Type             X           Y           Z
 ---------------------------------------------------------------------
      1         14           0        0.230855    0.316552   -0.209690
      2          8           0        0.922512   -0.229803    1.214394
      3          8           0       -0.295995    1.853090   -0.229858
      4          1           0       -1.178434    1.673366    0.261385
      5          8           0        1.651877    0.240245   -1.107044
      6          8           0       -0.713369   -0.818793   -0.930746
      7          6           0       -1.922370   -1.294517   -0.379301
      8          1           0       -1.697281   -1.953691    0.469242
      9          1           0       -2.431712   -1.881302   -1.153554
     10          6           0       -2.785993   -0.133001    0.114937
     11          1           0       -3.149625    0.406538   -0.790465
     12          1           0       -3.695539   -0.584115    0.574296
     13          8           0       -2.079089    0.652603    0.965822
     14          6           0        2.744139   -0.041001   -0.277916
     15          1           0        3.475747   -0.656997   -0.811624
     16          1           0        3.241082    0.890777    0.026486
     17          6           0        2.191761   -0.769088    0.955441
     18          1           0        2.112933   -1.846024    0.752279
     19          1           0        2.838143   -0.633378    1.828106
 ---------------------------------------------------------------------
                    Distance matrix (angstroms):
                    1          2          3          4          5
     1  Si   0.000000
     2  O    1.674786   0.000000
     3  O    1.624477   2.812306   0.000000
     4  H    2.012201   2.990694   1.025826   0.000000
     5  O    1.682370   2.478304   2.676739   3.455010   0.000000
     6  O    1.643316   2.761275   2.793636   2.801485   2.597505
     7  C    2.694567   3.430282   3.546105   3.126060   3.957315
     8  H    3.054940   3.223408   4.116300   3.669870   4.302893
     9  H    3.579204   4.425545   4.400021   4.025969   4.602046
    10  C    3.067385   3.869262   3.203675   2.422531   4.618143
    11  H    3.431187   4.583305   3.248076   2.568431   4.814800
    12  H    4.103950   4.675645   4.259522   3.395578   5.665804
    13  O    2.613542   3.138477   2.459724   1.532765   4.287997
    14  C    2.539507   2.362406   3.582221   4.314682   1.399853
    15  H    3.440850   3.287287   4.567825   5.314446   2.053976
    16  H    3.073594   2.835946   3.674598   4.494413   2.057585
    17  C    2.526123   1.403167   3.803903   4.219658   2.358829
    18  H    3.023960   2.059811   4.522275   4.843571   2.832344
    19  H    3.442808   2.051623   4.498951   4.889639   3.284136
                    6          7          8          9         10
     6  O    0.000000
     7  C    1.411414   0.000000
     8  H    2.053300   1.097816   0.000000
     9  H    2.032553   1.096911   1.782721   0.000000
    10  C    2.420647   1.529456   2.150753   2.188867   0.000000
    11  H    2.730652   2.137475   3.044149   2.425169   1.114936
    12  H    3.348666   2.134982   2.424832   2.503082   1.114356
    13  O    2.761733   2.371749   2.680511   3.322164   1.356795
    14  C    3.603541   4.833000   4.893142   5.562633   5.544832
    15  H    4.193931   5.452798   5.484729   6.042674   6.351573
    16  H    4.413231   5.621513   5.716158   6.423201   6.114048
    17  C    3.464095   4.357027   4.094426   5.202056   5.088132
    18  H    3.446122   4.227092   3.822229   4.928209   5.228779
    19  H    4.500987   5.288878   4.915263   6.182150   5.900528
                   11         12         13         14         15
    11  H    0.000000
    12  H    1.772565   0.000000
    13  O    2.071507   2.072601   0.000000
    14  C    5.932913   6.518488   5.029065   0.000000
    15  H    6.710224   7.304343   5.977505   1.095238   0.000000
    16  H    6.460885   7.112813   5.407707   1.099010   1.775697
    17  C    5.741140   5.902524   4.501275   1.535058   2.187168
    18  H    5.928626   5.946633   4.884853   2.172057   2.390991
    19  H    6.617530   6.653080   5.155235   2.189766   2.715745
                   16         17         18         19
    16  H    0.000000
    17  C    2.172368   0.000000
    18  H    3.047880   1.098763   0.000000
    19  H    2.394001   1.094427   1.775906   0.000000
 Stoichiometry    C4H9O5Si(1-)
 Framework group  C1[X(C4H9O5Si)]
 Deg. of freedom    51
 Full point group                 C1      NOp   1
 Largest Abelian subgroup         C1      NOp   1
 Largest concise Abelian subgroup C1      NOp   1
                         Standard orientation:                         
 ---------------------------------------------------------------------
 Center     Atomic      Atomic             Coordinates (Angstroms)
 Number     Number       Type             X           Y           Z
 ---------------------------------------------------------------------
      1         14           0        0.230855    0.316552   -0.209690
      2          8           0        0.922512   -0.229803    1.214394
      3          8           0       -0.295995    1.853090   -0.229858
      4          1           0       -1.178434    1.673366    0.261385
      5          8           0        1.651877    0.240245   -1.107044
      6          8           0       -0.713369   -0.818793   -0.930746
      7          6           0       -1.922370   -1.294517   -0.379301
      8          1           0       -1.697281   -1.953691    0.469242
      9          1           0       -2.431712   -1.881302   -1.153554
     10          6           0       -2.785993   -0.133001    0.114937
     11          1           0       -3.149625    0.406538   -0.790465
     12          1           0       -3.695539   -0.584115    0.574296
     13          8           0       -2.079089    0.652603    0.965822
     14          6           0        2.744139   -0.041001   -0.277916
     15          1           0        3.475747   -0.656997   -0.811624
     16          1           0        3.241082    0.890777    0.026486
     17          6           0        2.191761   -0.769088    0.955441
     18          1           0        2.112933   -1.846024    0.752279
     19          1           0        2.838143   -0.633378    1.828106
 ---------------------------------------------------------------------
 Rotational constants (GHZ):           2.3498846           0.8605151           0.8249424
 Standard basis: def2TZVPP (5D, 7F)
 There are   507 symmetry adapted cartesian basis functions of A   symmetry.
 There are   447 symmetry adapted basis functions of A   symmetry.
   447 basis functions,   681 primitive gaussians,   507 cartesian basis functions
    44 alpha electrons       44 beta electrons
       nuclear repulsion energy       724.8714789565 Hartrees.
 NAtoms=   19 NActive=   19 NUniq=   19 SFac= 1.00D+00 NAtFMM=   60 NAOKFM=F Big=F
 Integral buffers will be    131072 words long.
 Raffenetti 2 integral format.
 Two-electron integral symmetry is turned on.
 Nuclear repulsion after empirical dispersion term =      724.8617521230 Hartrees.
 One-electron integrals computed using PRISM.
   1 Symmetry operations used in ECPInt.
 ECPInt:  NShTT=   14028 NPrTT=   39320 LenC2=   13318 LenP2D=   29166.
 LDataN:  DoStor=T MaxTD1= 6 Len=  172
 NBasis=   447 RedAO= T EigKep=  2.85D-04  NBF=   447
 NBsUse=   447 1.00D-06 EigRej= -1.00D+00 NBFU=   447
 ExpMin= 7.01D-02 ExpMax= 4.48D+04 ExpMxC= 1.53D+03 IAcc=3 IRadAn=         5 AccDes= 0.00D+00
 Harris functional with IExCor= 4639 and IRadAn=       5 diagonalized for initial guess.
 HarFok:  IExCor= 4639 AccDes= 0.00D+00 IRadAn=         5 IDoV= 1 UseB2=F ITyADJ=14
 ICtDFT=  3500011 ScaDFX=  1.000000  1.000000  1.000000  1.000000
 FoFCou: FMM=F IPFlag=           0 FMFlag=      100000 FMFlg1=           0
         NFxFlg=           0 DoJE=T BraDBF=F KetDBF=T FulRan=T
         wScrn=  0.000000 ICntrl=       500 IOpCl=  0 I1Cent=   200000004 NGrid=           0
         NMat0=    1 NMatS0=      1 NMatT0=    0 NMatD0=    1 NMtDS0=    0 NMtDT0=    0
 Petite list used in FoFCou.
 Requested convergence on RMS density matrix=1.00D-08 within 128 cycles.
 Requested convergence on MAX density matrix=1.00D-06.
 Requested convergence on             energy=1.00D-06.
 No special actions if energy rises.
 Integral accuracy reduced to 1.0D-05 until final iterations.
 Initial convergence to 1.0D-05 achieved.  Increase integral accuracy.
 SCF Done:  E(RwB97XD) =  -823.723071798     A.U. after   15 cycles
            NFock= 15  Conv=0.49D-08     -V/T= 2.0036
 DoSCS=F DFT=T ScalE2(SS,OS)=  1.000000  1.000000
 Range of M.O.s used for correlation:     1   447
 NBasis=   447 NAE=    44 NBE=    44 NFC=     0 NFV=     0
 NROrb=    447 NOA=    44 NOB=    44 NVA=   403 NVB=   403

 **** Warning!!: The largest alpha MO coefficient is  0.12464491D+02

   1 Symmetry operations used in ECPInt.
 ECPInt:  NShTT=   14028 NPrTT=   39320 LenC2=   13318 LenP2D=   29166.
 LDataN:  DoStor=T MaxTD1= 7 Len=  274
 Symmetrizing basis deriv contribution to polar:
 IMax=3 JMax=2 DiffMx= 0.00D+00
 G2DrvN: will do    20 centers at a time, making    1 passes.
 Calling FoFCou, ICntrl=  3107 FMM=F I1Cent=   0 AccDes= 0.00D+00.
 End of G2Drv F.D. properties file   721 does not exist.
 End of G2Drv F.D. properties file   722 does not exist.
 End of G2Drv F.D. properties file   788 does not exist.
          IDoAtm=1111111111111111111
          Differentiating once with respect to electric field.
                with respect to dipole field.
          Differentiating once with respect to nuclear coordinates.
 CalDSu exits because no D1Ps are significant.
          There are    60 degrees of freedom in the 1st order CPHF.  IDoFFX=6 NUNeed=     3.
     57 vectors produced by pass  0 Test12= 2.96D-14 1.67D-09 XBig12= 3.50D+01 1.06D+00.
 AX will form    57 AO Fock derivatives at one time.
     57 vectors produced by pass  1 Test12= 2.96D-14 1.67D-09 XBig12= 3.78D+00 2.38D-01.
     57 vectors produced by pass  2 Test12= 2.96D-14 1.67D-09 XBig12= 7.68D-02 3.18D-02.
     57 vectors produced by pass  3 Test12= 2.96D-14 1.67D-09 XBig12= 9.69D-04 5.04D-03.
     57 vectors produced by pass  4 Test12= 2.96D-14 1.67D-09 XBig12= 1.00D-05 4.84D-04.
     57 vectors produced by pass  5 Test12= 2.96D-14 1.67D-09 XBig12= 8.34D-08 2.99D-05.
     57 vectors produced by pass  6 Test12= 2.96D-14 1.67D-09 XBig12= 6.67D-10 2.75D-06.
     27 vectors produced by pass  7 Test12= 2.96D-14 1.67D-09 XBig12= 5.02D-12 2.22D-07.
      4 vectors produced by pass  8 Test12= 2.96D-14 1.67D-09 XBig12= 3.56D-14 2.32D-08.
      2 vectors produced by pass  9 Test12= 2.96D-14 1.67D-09 XBig12= 4.74D-16 2.40D-09.
 InvSVY:  IOpt=1 It=  1 EMax= 2.66D-15
 Solved reduced A of dimension   432 with    60 vectors.
 Isotropic polarizability for W=    0.000000       90.98 Bohr**3.
 End of Minotr F.D. properties file   721 does not exist.
 End of Minotr F.D. properties file   722 does not exist.
 End of Minotr F.D. properties file   788 does not exist.

 **********************************************************************

            Population analysis using the SCF Density.

 **********************************************************************

 Orbital symmetries:
       Occupied  (A) (A) (A) (A) (A) (A) (A) (A) (A) (A) (A) (A)
                 (A) (A) (A) (A) (A) (A) (A) (A) (A) (A) (A) (A)
                 (A) (A) (A) (A) (A) (A) (A) (A) (A) (A) (A) (A)
                 (A) (A) (A) (A) (A) (A) (A) (A)
       Virtual   (A) (A) (A) (A) (A) (A) (A) (A) (A) (A) (A) (A)
                 (A) (A) (A) (A) (A) (A) (A) (A) (A) (A) (A) (A)
                 (A) (A) (A) (A) (A) (A) (A) (A) (A) (A) (A) (A)
                 (A) (A) (A) (A) (A) (A) (A) (A) (A) (A) (A) (A)
                 (A) (A) (A) (A) (A) (A) (A) (A) (A) (A) (A) (A)
                 (A) (A) (A) (A) (A) (A) (A) (A) (A) (A) (A) (A)
                 (A) (A) (A) (A) (A) (A) (A) (A) (A) (A) (A) (A)
                 (A) (A) (A) (A) (A) (A) (A) (A) (A) (A) (A) (A)
                 (A) (A) (A) (A) (A) (A) (A) (A) (A) (A) (A) (A)
                 (A) (A) (A) (A) (A) (A) (A) (A) (A) (A) (A) (A)
                 (A) (A) (A) (A) (A) (A) (A) (A) (A) (A) (A) (A)
                 (A) (A) (A) (A) (A) (A) (A) (A) (A) (A) (A) (A)
                 (A) (A) (A) (A) (A) (A) (A) (A) (A) (A) (A) (A)
                 (A) (A) (A) (A) (A) (A) (A) (A) (A) (A) (A) (A)
                 (A) (A) (A) (A) (A) (A) (A) (A) (A) (A) (A) (A)
                 (A) (A) (A) (A) (A) (A) (A) (A) (A) (A) (A) (A)
                 (A) (A) (A) (A) (A) (A) (A) (A) (A) (A) (A) (A)
                 (A) (A) (A) (A) (A) (A) (A) (A) (A) (A) (A) (A)
                 (A) (A) (A) (A) (A) (A) (A) (A) (A) (A) (A) (A)
                 (A) (A) (A) (A) (A) (A) (A) (A) (A) (A) (A) (A)
                 (A) (A) (A) (A) (A) (A) (A) (A) (A) (A) (A) (A)
                 (A) (A) (A) (A) (A) (A) (A) (A) (A) (A) (A) (A)
                 (A) (A) (A) (A) (A) (A) (A) (A) (A) (A) (A) (A)
                 (A) (A) (A) (A) (A) (A) (A) (A) (A) (A) (A) (A)
                 (A) (A) (A) (A) (A) (A) (A) (A) (A) (A) (A) (A)
                 (A) (A) (A) (A) (A) (A) (A) (A) (A) (A) (A) (A)
                 (A) (A) (A) (A) (A) (A) (A) (A) (A) (A) (A) (A)
                 (A) (A) (A) (A) (A) (A) (A) (A) (A) (A) (A) (A)
                 (A) (A) (A) (A) (A) (A) (A) (A) (A) (A) (A) (A)
                 (A) (A) (A) (A) (A) (A) (A) (A) (A) (A) (A) (A)
                 (A) (A) (A) (A) (A) (A) (A) (A) (A) (A) (A) (A)
                 (A) (A) (A) (A) (A) (A) (A) (A) (A) (A) (A) (A)
                 (A) (A) (A) (A) (A) (A) (A) (A) (A) (A) (A) (A)
                 (A) (A) (A) (A) (A) (A) (A)
 The electronic state is 1-A.
 Alpha  occ. eigenvalues --  -66.14167 -19.09485 -19.09187 -19.08550 -19.04829
 Alpha  occ. eigenvalues --  -18.98673 -10.20495 -10.20473 -10.16998 -10.14453
 Alpha  occ. eigenvalues --   -5.25765  -3.60447  -3.60229  -3.60091  -1.00384
 Alpha  occ. eigenvalues --   -0.95700  -0.94229  -0.90547  -0.85608  -0.69603
 Alpha  occ. eigenvalues --   -0.64730  -0.57599  -0.52675  -0.47254  -0.45720
 Alpha  occ. eigenvalues --   -0.43846  -0.40945  -0.39910  -0.39559  -0.37527
 Alpha  occ. eigenvalues --   -0.36623  -0.35686  -0.31609  -0.30170  -0.27149
 Alpha  occ. eigenvalues --   -0.26877  -0.26329  -0.25715  -0.24486  -0.22937
 Alpha  occ. eigenvalues --   -0.21383  -0.20371  -0.12879  -0.12563
 Alpha virt. eigenvalues --    0.23587   0.26085   0.26736   0.27310   0.28047
 Alpha virt. eigenvalues --    0.29825   0.31620   0.32572   0.33114   0.33531
 Alpha virt. eigenvalues --    0.34973   0.35348   0.38050   0.38861   0.39055
 Alpha virt. eigenvalues --    0.40164   0.40549   0.42278   0.42562   0.43666
 Alpha virt. eigenvalues --    0.44586   0.46935   0.48896   0.50206   0.51392
 Alpha virt. eigenvalues --    0.51898   0.52629   0.54393   0.55247   0.57191
 Alpha virt. eigenvalues --    0.57404   0.58541   0.58858   0.59886   0.60528
 Alpha virt. eigenvalues --    0.61140   0.61697   0.62661   0.63135   0.63391
 Alpha virt. eigenvalues --    0.63657   0.64956   0.66348   0.67314   0.68940
 Alpha virt. eigenvalues --    0.70444   0.70776   0.72191   0.72355   0.74472
 Alpha virt. eigenvalues --    0.74894   0.75900   0.77815   0.79680   0.80769
 Alpha virt. eigenvalues --    0.84612   0.85593   0.86921   0.88155   0.89485
 Alpha virt. eigenvalues --    0.91259   0.92470   0.93924   0.94909   0.96011
 Alpha virt. eigenvalues --    0.97010   0.97658   0.99682   0.99970   1.00953
 Alpha virt. eigenvalues --    1.03215   1.03871   1.04329   1.05249   1.06627
 Alpha virt. eigenvalues --    1.07560   1.08650   1.10728   1.12379   1.14964
 Alpha virt. eigenvalues --    1.15342   1.16742   1.19273   1.19808   1.20696
 Alpha virt. eigenvalues --    1.21822   1.22800   1.24268   1.24771   1.26076
 Alpha virt. eigenvalues --    1.27691   1.28255   1.29942   1.31798   1.32195
 Alpha virt. eigenvalues --    1.33664   1.34290   1.34979   1.37974   1.38559
 Alpha virt. eigenvalues --    1.38703   1.40648   1.41219   1.42547   1.43982
 Alpha virt. eigenvalues --    1.44979   1.47098   1.48263   1.49175   1.51562
 Alpha virt. eigenvalues --    1.53484   1.54028   1.55154   1.56804   1.58820
 Alpha virt. eigenvalues --    1.58971   1.61346   1.62358   1.62726   1.64787
 Alpha virt. eigenvalues --    1.67854   1.69643   1.70157   1.71189   1.71954
 Alpha virt. eigenvalues --    1.73926   1.75837   1.76145   1.76871   1.78080
 Alpha virt. eigenvalues --    1.80224   1.81440   1.83677   1.85675   1.89878
 Alpha virt. eigenvalues --    1.90584   1.97788   1.99228   2.00948   2.01606
 Alpha virt. eigenvalues --    2.03751   2.08591   2.11314   2.11613   2.14734
 Alpha virt. eigenvalues --    2.16081   2.18266   2.20945   2.21880   2.23101
 Alpha virt. eigenvalues --    2.24860   2.26688   2.29426   2.29747   2.32956
 Alpha virt. eigenvalues --    2.34218   2.34845   2.36348   2.38429   2.39833
 Alpha virt. eigenvalues --    2.44245   2.46203   2.48166   2.49747   2.50328
 Alpha virt. eigenvalues --    2.52795   2.57276   2.58095   2.60152   2.61767
 Alpha virt. eigenvalues --    2.63943   2.66037   2.67800   2.69255   2.75961
 Alpha virt. eigenvalues --    2.79820   2.81467   2.82574   2.85198   2.86113
 Alpha virt. eigenvalues --    2.87956   2.88654   2.91299   2.94718   2.95912
 Alpha virt. eigenvalues --    2.98176   2.98960   3.01304   3.03459   3.05135
 Alpha virt. eigenvalues --    3.06389   3.08182   3.08908   3.11440   3.14395
 Alpha virt. eigenvalues --    3.15393   3.16641   3.17996   3.18667   3.18917
 Alpha virt. eigenvalues --    3.21965   3.23011   3.23610   3.25591   3.27238
 Alpha virt. eigenvalues --    3.29817   3.31008   3.31729   3.33145   3.33820
 Alpha virt. eigenvalues --    3.34871   3.35169   3.36586   3.37478   3.39780
 Alpha virt. eigenvalues --    3.40125   3.41375   3.44296   3.45406   3.47407
 Alpha virt. eigenvalues --    3.49536   3.49994   3.52469   3.54732   3.55965
 Alpha virt. eigenvalues --    3.58983   3.59954   3.63140   3.64340   3.65214
 Alpha virt. eigenvalues --    3.70554   3.72531   3.74693   3.74988   3.76985
 Alpha virt. eigenvalues --    3.78217   3.81963   3.83848   3.85502   3.85979
 Alpha virt. eigenvalues --    3.86357   3.87904   3.89125   3.91122   3.92206
 Alpha virt. eigenvalues --    3.93365   3.94093   3.95220   3.96501   3.98837
 Alpha virt. eigenvalues --    4.01905   4.02109   4.03750   4.04559   4.05878
 Alpha virt. eigenvalues --    4.07525   4.08306   4.13359   4.14652   4.17085
 Alpha virt. eigenvalues --    4.17870   4.18460   4.20596   4.24143   4.26217
 Alpha virt. eigenvalues --    4.26517   4.29359   4.31685   4.31975   4.33213
 Alpha virt. eigenvalues --    4.36731   4.37283   4.39277   4.40084   4.43620
 Alpha virt. eigenvalues --    4.44465   4.44970   4.47132   4.49620   4.51118
 Alpha virt. eigenvalues --    4.53278   4.55812   4.56716   4.58668   4.62141
 Alpha virt. eigenvalues --    4.68044   4.71357   4.72195   4.75806   4.76161
 Alpha virt. eigenvalues --    4.79365   4.80678   4.87271   4.87757   4.88771
 Alpha virt. eigenvalues --    4.90105   4.94016   4.95354   4.97486   4.98829
 Alpha virt. eigenvalues --    5.00264   5.02342   5.04942   5.06204   5.09873
 Alpha virt. eigenvalues --    5.11257   5.12970   5.15024   5.16909   5.18890
 Alpha virt. eigenvalues --    5.23888   5.24517   5.26595   5.29338   5.32648
 Alpha virt. eigenvalues --    5.33836   5.36668   5.39089   5.41767   5.45714
 Alpha virt. eigenvalues --    5.47089   5.48244   5.50386   5.53279   5.55535
 Alpha virt. eigenvalues --    5.57274   5.58630   5.61486   5.64367   5.65949
 Alpha virt. eigenvalues --    5.67731   5.67867   5.70978   5.72620   5.73127
 Alpha virt. eigenvalues --    5.73641   5.75817   5.78116   5.80794   5.82296
 Alpha virt. eigenvalues --    5.83765   5.84167   5.85421   5.88552   5.91670
 Alpha virt. eigenvalues --    5.96037   5.96757   5.99793   6.06456   6.09302
 Alpha virt. eigenvalues --    6.15386   6.20494   6.23310   6.26921   6.28105
 Alpha virt. eigenvalues --    6.33402   6.35104   6.36957   6.41605   6.42808
 Alpha virt. eigenvalues --    6.49333   6.49924   6.64196   6.81534   6.84002
 Alpha virt. eigenvalues --    6.86837   6.88791   6.90954   6.93080   6.94155
 Alpha virt. eigenvalues --    6.96724   6.98558   7.01377   7.01824   7.11137
 Alpha virt. eigenvalues --    7.13142   7.14539   7.19199   7.23918   7.25746
 Alpha virt. eigenvalues --    7.26644   7.28439   7.33149   7.37735   7.38318
 Alpha virt. eigenvalues --    7.41946   7.46376   7.53364   7.64798   7.73857
 Alpha virt. eigenvalues --    7.74150   7.89564   8.03184  12.58978  23.47071
 Alpha virt. eigenvalues --   23.56362  23.60024  23.70971  44.09640  44.29082
 Alpha virt. eigenvalues --   44.30468  44.40760  44.46278
          Condensed to atoms (all electrons):
               1          2          3          4          5          6
     1  Si  11.591498   0.383401   0.494293  -0.063041   0.434189   0.439062
     2  O    0.383401   7.917247  -0.021885   0.001849  -0.022020  -0.019806
     3  O    0.494293  -0.021885   7.905956   0.291324  -0.022430  -0.026230
     4  H   -0.063041   0.001849   0.291324   0.411226   0.001257  -0.001174
     5  O    0.434189  -0.022020  -0.022430   0.001257   7.942566  -0.028801
     6  O    0.439062  -0.019806  -0.026230  -0.001174  -0.028801   7.908713
     7  C   -0.120461   0.002530  -0.007478   0.023001  -0.000987   0.302341
     8  H    0.010375   0.004027  -0.000095  -0.002627  -0.000022  -0.055786
     9  H    0.007682  -0.000031  -0.000294  -0.001416  -0.000120  -0.041999
    10  C   -0.011377  -0.001996   0.014752  -0.007401  -0.000308  -0.072309
    11  H    0.033720  -0.000248   0.004624  -0.024001  -0.000028   0.001418
    12  H   -0.000857   0.000185  -0.001579   0.003694   0.000015   0.006474
    13  O    0.108802  -0.005051  -0.105228   0.122076  -0.000021  -0.010468
    14  C   -0.042934  -0.072768  -0.000662  -0.001608   0.314414  -0.003309
    15  H   -0.001531   0.004303  -0.000223  -0.000001  -0.042943   0.000279
    16  H    0.004239   0.006862   0.000582   0.000029  -0.051953  -0.000450
    17  C   -0.056454   0.316873  -0.002670   0.000525  -0.077769   0.003000
    18  H    0.001316  -0.050977  -0.000275  -0.000070   0.006933   0.001227
    19  H    0.003047  -0.042185  -0.000056   0.000059   0.005628  -0.000174
               7          8          9         10         11         12
     1  Si  -0.120461   0.010375   0.007682  -0.011377   0.033720  -0.000857
     2  O    0.002530   0.004027  -0.000031  -0.001996  -0.000248   0.000185
     3  O   -0.007478  -0.000095  -0.000294   0.014752   0.004624  -0.001579
     4  H    0.023001  -0.002627  -0.001416  -0.007401  -0.024001   0.003694
     5  O   -0.000987  -0.000022  -0.000120  -0.000308  -0.000028   0.000015
     6  O    0.302341  -0.055786  -0.041999  -0.072309   0.001418   0.006474
     7  C    5.075849   0.385222   0.319563   0.241578  -0.137184  -0.033551
     8  H    0.385222   0.713492  -0.052802  -0.046951   0.021098  -0.016639
     9  H    0.319563  -0.052802   0.739705  -0.009421   0.000026   0.012088
    10  C    0.241578  -0.046951  -0.009421   4.682030   0.415798   0.310467
    11  H   -0.137184   0.021098   0.000026   0.415798   0.886368  -0.100064
    12  H   -0.033551  -0.016639   0.012088   0.310467  -0.100064   0.887810
    13  O   -0.148053   0.011052   0.011252   0.398919  -0.080967  -0.040480
    14  C   -0.001730   0.001189   0.000076  -0.000223   0.000193  -0.000018
    15  H    0.000170  -0.000007  -0.000002  -0.000007   0.000000   0.000000
    16  H   -0.000168  -0.000007  -0.000003   0.000015  -0.000000   0.000001
    17  C    0.002606  -0.001086   0.000114  -0.000434  -0.000178   0.000098
    18  H   -0.000231  -0.000571  -0.000023   0.000230   0.000011  -0.000001
    19  H   -0.000009   0.000031  -0.000003  -0.000026  -0.000000  -0.000001
              13         14         15         16         17         18
     1  Si   0.108802  -0.042934  -0.001531   0.004239  -0.056454   0.001316
     2  O   -0.005051  -0.072768   0.004303   0.006862   0.316873  -0.050977
     3  O   -0.105228  -0.000662  -0.000223   0.000582  -0.002670  -0.000275
     4  H    0.122076  -0.001608  -0.000001   0.000029   0.000525  -0.000070
     5  O   -0.000021   0.314414  -0.042943  -0.051953  -0.077769   0.006933
     6  O   -0.010468  -0.003309   0.000279  -0.000450   0.003000   0.001227
     7  C   -0.148053  -0.001730   0.000170  -0.000168   0.002606  -0.000231
     8  H    0.011052   0.001189  -0.000007  -0.000007  -0.001086  -0.000571
     9  H    0.011252   0.000076  -0.000002  -0.000003   0.000114  -0.000023
    10  C    0.398919  -0.000223  -0.000007   0.000015  -0.000434   0.000230
    11  H   -0.080967   0.000193   0.000000  -0.000000  -0.000178   0.000011
    12  H   -0.040480  -0.000018   0.000000   0.000001   0.000098  -0.000001
    13  O    8.427617   0.000077  -0.000000   0.000030  -0.000128   0.000114
    14  C    0.000077   4.735003   0.372978   0.416007   0.283565  -0.056521
    15  H   -0.000000   0.372978   0.734377  -0.075357  -0.010566  -0.016790
    16  H    0.000030   0.416007  -0.075357   0.727456  -0.058931   0.015785
    17  C   -0.000128   0.283565  -0.010566  -0.058931   4.746491   0.414444
    18  H    0.000114  -0.056521  -0.016790   0.015785   0.414444   0.722985
    19  H   -0.000027  -0.013597   0.009434  -0.017218   0.375937  -0.070530
              19
     1  Si   0.003047
     2  O   -0.042185
     3  O   -0.000056
     4  H    0.000059
     5  O    0.005628
     6  O   -0.000174
     7  C   -0.000009
     8  H    0.000031
     9  H   -0.000003
    10  C   -0.000026
    11  H   -0.000000
    12  H   -0.000001
    13  O   -0.000027
    14  C   -0.013597
    15  H    0.009434
    16  H   -0.017218
    17  C    0.375937
    18  H   -0.070530
    19  H    0.716652
 Mulliken charges:
               1
     1  Si   0.785030
     2  O   -0.400311
     3  O   -0.522425
     4  H    0.246300
     5  O   -0.457598
     6  O   -0.402007
     7  C    0.096991
     8  H    0.030106
     9  H    0.015611
    10  C    0.086665
    11  H   -0.020587
    12  H   -0.027642
    13  O   -0.689512
    14  C    0.069868
    15  H    0.025887
    16  H    0.033080
    17  C    0.064562
    18  H    0.032943
    19  H    0.033040
 Sum of Mulliken charges =  -1.00000
 Mulliken charges with hydrogens summed into heavy atoms:
               1
     1  Si   0.785030
     2  O   -0.400311
     3  O   -0.276125
     5  O   -0.457598
     6  O   -0.402007
     7  C    0.142709
    10  C    0.038436
    13  O   -0.689512
    14  C    0.128835
    17  C    0.130545
 APT charges:
               1
     1  Si   2.255553
     2  O   -0.954242
     3  O   -1.047022
     4  H    0.530449
     5  O   -0.951110
     6  O   -1.021998
     7  C    0.531579
     8  H   -0.090451
     9  H   -0.112581
    10  C    0.657209
    11  H   -0.175197
    12  H   -0.200278
    13  O   -1.079671
    14  C    0.518633
    15  H   -0.087358
    16  H   -0.101450
    17  C    0.507237
    18  H   -0.094110
    19  H   -0.085194
 Sum of APT charges =  -1.00000
 APT charges with hydrogens summed into heavy atoms:
               1
     1  Si   2.255553
     2  O   -0.954242
     3  O   -0.516573
     5  O   -0.951110
     6  O   -1.021998
     7  C    0.328547
    10  C    0.281735
    13  O   -1.079671
    14  C    0.329825
    17  C    0.327934
 Electronic spatial extent (au):  <R**2>=           1600.7398
 Charge=             -1.0000 electrons
 Dipole moment (field-independent basis, Debye):
    X=              4.3671    Y=             -3.3845    Z=             -0.6251  Tot=              5.5603
 Quadrupole moment (field-independent basis, Debye-Ang):
   XX=            -80.0158   YY=            -76.1315   ZZ=            -78.7254
   XY=              1.8905   XZ=              7.0527   YZ=             -1.1681
 Traceless Quadrupole moment (field-independent basis, Debye-Ang):
   XX=             -1.7249   YY=              2.1594   ZZ=             -0.4345
   XY=              1.8905   XZ=              7.0527   YZ=             -1.1681
 Octapole moment (field-independent basis, Debye-Ang**2):
  XXX=             44.2057  YYY=             -7.9865  ZZZ=             -3.9422  XYY=              5.5364
  XXY=             -5.9844  XXZ=             -6.8110  XZZ=              5.9581  YZZ=              0.3233
  YYZ=              3.1979  XYZ=              5.6480
 Hexadecapole moment (field-independent basis, Debye-Ang**3):
 XXXX=          -1567.2450 YYYY=           -424.1524 ZZZZ=           -320.9682 XXXY=              4.1217
 XXXZ=             29.2499 YYYX=             -6.8861 YYYZ=              5.7515 ZZZX=             10.6827
 ZZZY=             -1.7281 XXYY=           -314.0646 XXZZ=           -318.8275 YYZZ=           -119.9798
 XXYZ=             -5.2088 YYXZ=             -0.2862 ZZXY=              2.7256
 N-N= 7.248617521230D+02 E-N=-3.411458582085D+03  KE= 8.207861517214D+02
  Exact polarizability:     110.055       2.967      84.884       2.267      -0.753      78.009
 Approx polarizability:      99.894       2.247      91.559       1.266       0.366      89.157
   1 Symmetry operations used in ECPInt.
 ECPInt:  NShTT=   14028 NPrTT=   39320 LenC2=   13318 LenP2D=   29166.
 LDataN:  DoStor=T MaxTD1= 8 Len=  415
 Calling FoFJK, ICntrl=    100127 FMM=F ISym2X=0 I1Cent= 0 IOpClX= 0 NMat=1 NMatS=1 NMatT=0.
 ***** Axes restored to original set *****
 -------------------------------------------------------------------
 Center     Atomic                   Forces (Hartrees/Bohr)
 Number     Number              X              Y              Z
 -------------------------------------------------------------------
      1       14          -0.006937697    0.007169907   -0.000188111
      2        8          -0.000019731   -0.000003865    0.000038143
      3        8           0.003963363   -0.006719116   -0.000683007
      4        1           0.000029012   -0.000015765   -0.000027742
      5        8          -0.000005869    0.000021889   -0.000005029
      6        8           0.003250035    0.000146193    0.000698159
      7        6          -0.001390718    0.000619449   -0.000312477
      8        1          -0.000000117   -0.000002471   -0.000002651
      9        1           0.000001395   -0.000000441   -0.000002333
     10        6          -0.000239690   -0.000424761   -0.000090221
     11        1          -0.000000544    0.000000475   -0.000003030
     12        1          -0.000002961   -0.000003376   -0.000001684
     13        8           0.001357729   -0.000803651    0.000582298
     14        6          -0.000023114    0.000010135    0.000015372
     15        1           0.000002190   -0.000012842   -0.000002894
     16        1           0.000014357    0.000012818   -0.000000536
     17        6           0.000022352   -0.000001301   -0.000015808
     18        1          -0.000011539   -0.000005838    0.000004304
     19        1          -0.000008451    0.000012561   -0.000002752
 -------------------------------------------------------------------
 Cartesian Forces:  Max     0.007169907 RMS     0.001764485
 FormGI is forming the generalized inverse of G from B-inverse, IUseBI=4.

 GradGradGradGradGradGradGradGradGradGradGradGradGradGradGradGradGradGrad
 Berny optimization.
 Internal  Forces:  Max     0.007656293 RMS     0.001092928
 Search for a saddle point.
 Step number   1 out of a maximum of  102
 All quantities printed in internal units (Hartrees-Bohrs-Radians)
 Swapping is turned off.
 Second derivative matrix not updated -- analytic derivatives used.
 ITU=  0
     Eigenvalues ---   -0.06526   0.00205   0.00327   0.00420   0.00809
     Eigenvalues ---    0.02088   0.04265   0.04568   0.04700   0.04997
     Eigenvalues ---    0.05118   0.05345   0.05656   0.07373   0.07871
     Eigenvalues ---    0.08286   0.09387   0.09519   0.09782   0.10348
     Eigenvalues ---    0.10396   0.11176   0.11248   0.13222   0.14287
     Eigenvalues ---    0.15560   0.16772   0.18417   0.19802   0.22245
     Eigenvalues ---    0.24732   0.25132   0.26412   0.27721   0.27784
     Eigenvalues ---    0.28349   0.28572   0.30045   0.30716   0.31122
     Eigenvalues ---    0.31975   0.32205   0.32535   0.33372   0.34998
     Eigenvalues ---    0.37217   0.40105   0.40777   0.43794   0.46484
     Eigenvalues ---    2.19602
 Eigenvectors required to have negative eigenvalues:
                          D11       D6        R6        D1        A4
   1                    0.45019  -0.34707   0.30476  -0.28980   0.25763
                          D21       A5        A19       D3        A6
   1                    0.23100  -0.22261   0.21839   0.18910   0.15852
 RFO step:  Lambda0=2.261667843D-04 Lambda=-4.94865879D-04.
 Linear search not attempted -- option 19 set.
 Iteration  1 RMS(Cart)=  0.03491546 RMS(Int)=  0.00064446
 Iteration  2 RMS(Cart)=  0.00181346 RMS(Int)=  0.00001757
 Iteration  3 RMS(Cart)=  0.00000238 RMS(Int)=  0.00001752
 Iteration  4 RMS(Cart)=  0.00000000 RMS(Int)=  0.00001752
 Variable       Old X    -DE/DX   Delta X   Delta X   Delta X     New X
                                 (Linear)    (Quad)   (Total)
    R1        3.16489  -0.00004   0.00000   0.00273   0.00272   3.16760
    R2        3.06982  -0.00766   0.00000  -0.03286  -0.03286   3.03696
    R3        3.17922  -0.00006   0.00000  -0.00024  -0.00025   3.17897
    R4        3.10542  -0.00177   0.00000  -0.00583  -0.00583   3.09958
    R5        2.65160   0.00002   0.00000  -0.00091  -0.00091   2.65069
    R6        1.93853  -0.00004   0.00000   0.02800   0.02800   1.96653
    R7        2.64534   0.00001   0.00000   0.00033   0.00033   2.64567
    R8        2.66719   0.00051   0.00000   0.00291   0.00291   2.67009
    R9        2.07457   0.00000   0.00000  -0.00015  -0.00015   2.07442
   R10        2.07286   0.00000   0.00000   0.00010   0.00010   2.07296
   R11        2.89025  -0.00140   0.00000  -0.00102  -0.00102   2.88923
   R12        2.10692   0.00000   0.00000  -0.00097  -0.00097   2.10596
   R13        2.10583   0.00000   0.00000  -0.00126  -0.00126   2.10457
   R14        2.56397   0.00061   0.00000   0.00367   0.00367   2.56764
   R15        2.06970   0.00001   0.00000   0.00013   0.00013   2.06983
   R16        2.07683   0.00002   0.00000   0.00004   0.00004   2.07686
   R17        2.90084   0.00009   0.00000   0.00040   0.00041   2.90125
   R18        2.07636   0.00001   0.00000   0.00026   0.00026   2.07662
   R19        2.06817  -0.00001   0.00000   0.00014   0.00014   2.06831
    A1        2.04099  -0.00001   0.00000  -0.00685  -0.00688   2.03411
    A2        1.66084   0.00014   0.00000  -0.00021  -0.00022   1.66062
    A3        1.96601  -0.00038   0.00000  -0.00817  -0.00819   1.95782
    A4        1.88622  -0.00099   0.00000   0.01722   0.01723   1.90345
    A5        2.05070   0.00136   0.00000   0.00366   0.00357   2.05427
    A6        1.79256  -0.00064   0.00000  -0.00246  -0.00251   1.79005
    A7        1.91986  -0.00011   0.00000  -0.00193  -0.00196   1.91791
    A8        1.67833  -0.00004   0.00000  -0.00352  -0.00352   1.67481
    A9        1.93077  -0.00010   0.00000   0.00076   0.00073   1.93150
   A10        2.15750  -0.00114   0.00000   0.01617   0.01617   2.17367
   A11        1.90577   0.00054   0.00000  -0.00424  -0.00424   1.90153
   A12        1.87788   0.00015   0.00000  -0.00086  -0.00086   1.87702
   A13        1.93260  -0.00109   0.00000   0.01099   0.01099   1.94359
   A14        1.89608  -0.00008   0.00000  -0.00089  -0.00090   1.89518
   A15        1.89863  -0.00106   0.00000  -0.00200  -0.00200   1.89663
   A16        1.95212   0.00157   0.00000  -0.00325  -0.00326   1.94886
   A17        1.86424   0.00060   0.00000   0.00087   0.00086   1.86510
   A18        1.86153   0.00043   0.00000  -0.00245  -0.00245   1.85908
   A19        1.92643  -0.00288   0.00000   0.00532   0.00532   1.93175
   A20        1.83843   0.00003   0.00000   0.00046   0.00046   1.83888
   A21        1.98122   0.00112   0.00000  -0.00203  -0.00203   1.97919
   A22        1.98355   0.00079   0.00000  -0.00227  -0.00227   1.98129
   A23        1.92366  -0.00003   0.00000  -0.00003  -0.00003   1.92363
   A24        1.92467   0.00002   0.00000  -0.00028  -0.00027   1.92440
   A25        1.86545   0.00002   0.00000   0.00054   0.00053   1.86598
   A26        1.88575   0.00000   0.00000  -0.00003  -0.00003   1.88572
   A27        1.94457  -0.00001   0.00000  -0.00019  -0.00019   1.94438
   A28        1.92016   0.00000   0.00000  -0.00001  -0.00001   1.92015
   A29        1.86657   0.00002   0.00000  -0.00030  -0.00031   1.86627
   A30        1.92402   0.00001   0.00000   0.00084   0.00085   1.92487
   A31        1.91711  -0.00003   0.00000   0.00041   0.00041   1.91752
   A32        1.91999   0.00001   0.00000  -0.00029  -0.00029   1.91969
   A33        1.94907  -0.00002   0.00000  -0.00048  -0.00047   1.94860
   A34        1.88740   0.00001   0.00000  -0.00016  -0.00016   1.88725
    D1       -2.20985   0.00106   0.00000  -0.02914  -0.02908  -2.23894
    D2       -0.23269  -0.00002   0.00000  -0.01136  -0.01135  -0.24404
    D3        1.61873  -0.00074   0.00000  -0.01592  -0.01595   1.60278
    D4       -1.39190  -0.00055   0.00000   0.01185   0.01182  -1.38008
    D5        3.04508  -0.00010   0.00000   0.00473   0.00480   3.04988
    D6        1.02905   0.00062   0.00000  -0.00697  -0.00701   1.02205
    D7       -0.13929   0.00001   0.00000   0.01109   0.01108  -0.12821
    D8        1.96433  -0.00024   0.00000   0.00863   0.00864   1.97297
    D9       -2.13983   0.00050   0.00000   0.02018   0.02020  -2.11963
   D10        1.16759  -0.00086   0.00000   0.07675   0.07675   1.24434
   D11       -1.28290  -0.00209   0.00000   0.09453   0.09454  -1.18836
   D12        2.93356  -0.00112   0.00000   0.07280   0.07280   3.00636
   D13        0.49963   0.00002   0.00000   0.00836   0.00835   0.50799
   D14       -1.58733  -0.00001   0.00000   0.00842   0.00841  -1.57892
   D15        2.61776  -0.00001   0.00000   0.00783   0.00783   2.62559
   D16        2.54782  -0.00002   0.00000  -0.00745  -0.00746   2.54036
   D17       -1.65481  -0.00002   0.00000  -0.00769  -0.00769  -1.66250
   D18        0.43205   0.00000   0.00000  -0.00753  -0.00753   0.42451
   D19       -1.28183  -0.00143   0.00000  -0.06925  -0.06925  -1.35108
   D20        2.94650  -0.00172   0.00000  -0.06542  -0.06541   2.88108
   D21        0.80829  -0.00308   0.00000  -0.06763  -0.06764   0.74064
   D22        1.22507   0.00010   0.00000  -0.00775  -0.00775   1.21732
   D23       -3.09886   0.00060   0.00000  -0.00795  -0.00795  -3.10681
   D24       -0.93634   0.00010   0.00000  -0.00908  -0.00909  -0.94543
   D25       -2.96373  -0.00058   0.00000  -0.00752  -0.00752  -2.97126
   D26       -1.00447  -0.00008   0.00000  -0.00772  -0.00772  -1.01219
   D27        1.15804  -0.00058   0.00000  -0.00886  -0.00886   1.14918
   D28       -0.86928  -0.00040   0.00000  -0.01198  -0.01197  -0.88126
   D29        1.08998   0.00010   0.00000  -0.01218  -0.01217   1.07781
   D30       -3.03069  -0.00040   0.00000  -0.01331  -0.01331  -3.04400
   D31       -0.59439  -0.00006   0.00000  -0.00084  -0.00085  -0.59524
   D32        1.49517  -0.00003   0.00000  -0.00017  -0.00017   1.49500
   D33       -2.69218  -0.00002   0.00000  -0.00087  -0.00088  -2.69305
   D34       -2.69685  -0.00003   0.00000  -0.00103  -0.00103  -2.69788
   D35       -0.60728   0.00000   0.00000  -0.00036  -0.00036  -0.60764
   D36        1.48855   0.00001   0.00000  -0.00106  -0.00106   1.48749
   D37        1.49537  -0.00002   0.00000  -0.00086  -0.00086   1.49451
   D38       -2.69825   0.00000   0.00000  -0.00018  -0.00018  -2.69843
   D39       -0.60241   0.00001   0.00000  -0.00089  -0.00089  -0.60330
         Item               Value     Threshold  Converged?
 Maximum Force            0.007656     0.000450     NO 
 RMS     Force            0.001093     0.000300     NO 
 Maximum Displacement     0.115894     0.001800     NO 
 RMS     Displacement     0.035049     0.001200     NO 
 Predicted change in Energy=-1.429809D-04
 GradGradGradGradGradGradGradGradGradGradGradGradGradGradGradGradGradGrad

                          Input orientation:                          
 ---------------------------------------------------------------------
 Center     Atomic      Atomic             Coordinates (Angstroms)
 Number     Number       Type             X           Y           Z
 ---------------------------------------------------------------------
      1         14           0        0.235549    0.308561   -0.198936
      2          8           0        0.948114   -0.211691    1.226307
      3          8           0       -0.320698    1.816229   -0.215208
      4          1           0       -1.201379    1.612038    0.300194
      5          8           0        1.647982    0.234284   -1.109677
      6          8           0       -0.694076   -0.854594   -0.886844
      7          6           0       -1.935780   -1.294264   -0.375670
      8          1           0       -1.754100   -1.964464    0.474534
      9          1           0       -2.436996   -1.863156   -1.168436
     10          6           0       -2.789261   -0.118852    0.101367
     11          1           0       -3.105065    0.441639   -0.808611
     12          1           0       -3.725009   -0.555683    0.518333
     13          8           0       -2.102180    0.642481    0.992687
     14          6           0        2.750179   -0.038804   -0.290736
     15          1           0        3.475374   -0.660294   -0.826960
     16          1           0        3.250698    0.896069   -0.002020
     17          6           0        2.213189   -0.754403    0.956912
     18          1           0        2.131962   -1.833423    0.765349
     19          1           0        2.871140   -0.610213    1.819605
 ---------------------------------------------------------------------
                    Distance matrix (angstroms):
                    1          2          3          4          5
     1  Si   0.000000
     2  O    1.676224   0.000000
     3  O    1.607091   2.792903   0.000000
     4  H    2.003234   2.967152   1.040641   0.000000
     5  O    1.682240   2.479018   2.679240   3.464794   0.000000
     6  O    1.640229   2.752366   2.779174   2.784006   2.592402
     7  C    2.704617   3.472051   3.508476   3.072902   3.964666
     8  H    3.094981   3.307467   4.101710   3.623156   4.349526
     9  H    3.577538   4.463306   4.350314   3.969961   4.592358
    10  C    3.069583   3.904111   3.152549   2.357303   4.613075
    11  H    3.398400   4.582138   3.161380   2.494654   4.767085
    12  H    4.116724   4.738948   4.213476   3.333962   5.669524
    13  O    2.645079   3.176236   2.451606   1.493663   4.318596
    14  C    2.540167   2.361937   3.588473   4.323111   1.400028
    15  H    3.439413   3.286974   4.573573   5.320338   2.054157
    16  H    3.078159   2.835104   3.694187   4.519396   2.057562
    17  C    2.525258   1.402685   3.795075   4.206019   2.359608
    18  H    3.018994   2.060096   4.505219   4.816507   2.832909
    19  H    3.444559   2.051549   4.496211   4.881846   3.284811
                    6          7          8          9         10
     6  O    0.000000
     7  C    1.412953   0.000000
     8  H    2.051538   1.097735   0.000000
     9  H    2.033287   1.096965   1.782122   0.000000
    10  C    2.430571   1.528917   2.148742   2.186112   0.000000
    11  H    2.738469   2.137294   3.043172   2.426494   1.114425
    12  H    3.354165   2.132155   2.423028   2.492721   1.113690
    13  O    2.785072   2.377198   2.680634   3.325773   1.358735
    14  C    3.589394   4.851969   4.958057   5.568249   5.553876
    15  H    4.174405   5.466824   5.544560   6.043145   6.356147
    16  H    4.405563   5.642404   5.784268   6.428352   6.125509
    17  C    3.444076   4.391032   4.175682   5.231697   5.114722
    18  H    3.416773   4.259007   3.899131   4.961430   5.253481
    19  H    4.482784   5.328568   5.003604   6.218887   5.935816
                   11         12         13         14         15
    11  H    0.000000
    12  H    1.771937   0.000000
    13  O    2.071422   2.072241   0.000000
    14  C    5.897703   6.545977   5.065244   0.000000
    15  H    6.672090   7.325727   6.009779   1.095306   0.000000
    16  H    6.422836   7.144147   5.450417   1.099029   1.775745
    17  C    5.729870   5.957687   4.535963   1.535273   2.187274
    18  H    5.922813   5.999812   4.910167   2.172134   2.390907
    19  H    6.612786   6.723501   5.194896   2.189675   2.715127
                   16         17         18         19
    16  H    0.000000
    17  C    2.172564   0.000000
    18  H    3.048041   1.098900   0.000000
    19  H    2.394007   1.094500   1.775974   0.000000
 Stoichiometry    C4H9O5Si(1-)
 Framework group  C1[X(C4H9O5Si)]
 Deg. of freedom    51
 Full point group                 C1      NOp   1
 Largest Abelian subgroup         C1      NOp   1
 Largest concise Abelian subgroup C1      NOp   1
                         Standard orientation:                         
 ---------------------------------------------------------------------
 Center     Atomic      Atomic             Coordinates (Angstroms)
 Number     Number       Type             X           Y           Z
 ---------------------------------------------------------------------
      1         14           0        0.234928    0.303925   -0.220796
      2          8           0        0.945290   -0.149358    1.228220
      3          8           0       -0.322339    1.808798   -0.307701
      4          1           0       -1.203803    1.627955    0.215032
      5          8           0        1.649047    0.188744   -1.124639
      6          8           0       -0.692649   -0.890497   -0.855860
      7          6           0       -1.934964   -1.307043   -0.327107
      8          1           0       -1.754347   -1.937099    0.553478
      9          1           0       -2.434357   -1.912350   -1.093621
     10          6           0       -2.790119   -0.111509    0.093600
     11          1           0       -3.104677    0.406090   -0.841862
     12          1           0       -3.726311   -0.529334    0.528655
     13          8           0       -2.105172    0.690732    0.949997
     14          6           0        2.749959   -0.045353   -0.292010
     15          1           0        3.476551   -0.690392   -0.797663
     16          1           0        3.249308    0.902252   -0.045920
     17          6           0        2.211225   -0.702953    0.986422
     18          1           0        2.131094   -1.789736    0.844782
     19          1           0        2.867523   -0.518542    1.842691
 ---------------------------------------------------------------------
 Rotational constants (GHZ):           2.3756133           0.8536680           0.8211713
 Standard basis: def2TZVPP (5D, 7F)
 There are   507 symmetry adapted cartesian basis functions of A   symmetry.
 There are   447 symmetry adapted basis functions of A   symmetry.
   447 basis functions,   681 primitive gaussians,   507 cartesian basis functions
    44 alpha electrons       44 beta electrons
       nuclear repulsion energy       724.8298314454 Hartrees.
 NAtoms=   19 NActive=   19 NUniq=   19 SFac= 1.00D+00 NAtFMM=   60 NAOKFM=F Big=F
 Integral buffers will be    131072 words long.
 Raffenetti 2 integral format.
 Two-electron integral symmetry is turned on.
 Nuclear repulsion after empirical dispersion term =      724.8201022815 Hartrees.
 One-electron integrals computed using PRISM.
   1 Symmetry operations used in ECPInt.
 ECPInt:  NShTT=   14028 NPrTT=   39320 LenC2=   13311 LenP2D=   29142.
 LDataN:  DoStor=T MaxTD1= 6 Len=  172
 NBasis=   447 RedAO= T EigKep=  2.82D-04  NBF=   447
 NBsUse=   447 1.00D-06 EigRej= -1.00D+00 NBFU=   447
 Initial guess from the checkpoint file:  "QbiLmonoL_to_QbiL2_UnfreezeandTSopt.chk"
 B after Tr=    -0.000000    0.000000   -0.000000
         Rot=    0.999685    0.025041   -0.000161   -0.001746 Ang=   2.88 deg.
 ExpMin= 7.01D-02 ExpMax= 4.48D+04 ExpMxC= 1.53D+03 IAcc=3 IRadAn=         5 AccDes= 0.00D+00
 Harris functional with IExCor= 4639 and IRadAn=       5 diagonalized for initial guess.
 HarFok:  IExCor= 4639 AccDes= 0.00D+00 IRadAn=         5 IDoV= 1 UseB2=F ITyADJ=14
 ICtDFT=  3500011 ScaDFX=  1.000000  1.000000  1.000000  1.000000
 FoFCou: FMM=F IPFlag=           0 FMFlag=      100000 FMFlg1=           0
         NFxFlg=           0 DoJE=T BraDBF=F KetDBF=T FulRan=T
         wScrn=  0.000000 ICntrl=       500 IOpCl=  0 I1Cent=   200000004 NGrid=           0
         NMat0=    1 NMatS0=      1 NMatT0=    0 NMatD0=    1 NMtDS0=    0 NMtDT0=    0
 Petite list used in FoFCou.
 Requested convergence on RMS density matrix=1.00D-08 within 128 cycles.
 Requested convergence on MAX density matrix=1.00D-06.
 Requested convergence on             energy=1.00D-06.
 No special actions if energy rises.
 Integral accuracy reduced to 1.0D-05 until final iterations.
 Initial convergence to 1.0D-05 achieved.  Increase integral accuracy.
 SCF Done:  E(RwB97XD) =  -823.723213985     A.U. after   12 cycles
            NFock= 12  Conv=0.82D-08     -V/T= 2.0035
 DoSCS=F DFT=T ScalE2(SS,OS)=  1.000000  1.000000
 Range of M.O.s used for correlation:     1   447
 NBasis=   447 NAE=    44 NBE=    44 NFC=     0 NFV=     0
 NROrb=    447 NOA=    44 NOB=    44 NVA=   403 NVB=   403

 **** Warning!!: The largest alpha MO coefficient is  0.13152257D+02

   1 Symmetry operations used in ECPInt.
 ECPInt:  NShTT=   14028 NPrTT=   39320 LenC2=   13311 LenP2D=   29142.
 LDataN:  DoStor=T MaxTD1= 7 Len=  274
 Symmetrizing basis deriv contribution to polar:
 IMax=3 JMax=2 DiffMx= 0.00D+00
 G2DrvN: will do    20 centers at a time, making    1 passes.
 Calling FoFCou, ICntrl=  3107 FMM=F I1Cent=   0 AccDes= 0.00D+00.
 End of G2Drv F.D. properties file   721 does not exist.
 End of G2Drv F.D. properties file   722 does not exist.
 End of G2Drv F.D. properties file   788 does not exist.
          IDoAtm=1111111111111111111
          Differentiating once with respect to electric field.
                with respect to dipole field.
          Differentiating once with respect to nuclear coordinates.
 CalDSu exits because no D1Ps are significant.
          There are    60 degrees of freedom in the 1st order CPHF.  IDoFFX=6 NUNeed=     3.
     57 vectors produced by pass  0 Test12= 2.96D-14 1.67D-09 XBig12= 3.49D+01 9.14D-01.
 AX will form    57 AO Fock derivatives at one time.
     57 vectors produced by pass  1 Test12= 2.96D-14 1.67D-09 XBig12= 3.72D+00 2.30D-01.
     57 vectors produced by pass  2 Test12= 2.96D-14 1.67D-09 XBig12= 7.61D-02 2.83D-02.
     57 vectors produced by pass  3 Test12= 2.96D-14 1.67D-09 XBig12= 9.47D-04 4.82D-03.
     57 vectors produced by pass  4 Test12= 2.96D-14 1.67D-09 XBig12= 9.94D-06 4.44D-04.
     57 vectors produced by pass  5 Test12= 2.96D-14 1.67D-09 XBig12= 8.19D-08 2.80D-05.
     57 vectors produced by pass  6 Test12= 2.96D-14 1.67D-09 XBig12= 6.47D-10 2.56D-06.
     27 vectors produced by pass  7 Test12= 2.96D-14 1.67D-09 XBig12= 4.84D-12 2.15D-07.
      4 vectors produced by pass  8 Test12= 2.96D-14 1.67D-09 XBig12= 3.45D-14 2.36D-08.
      2 vectors produced by pass  9 Test12= 2.96D-14 1.67D-09 XBig12= 4.48D-16 2.67D-09.
 InvSVY:  IOpt=1 It=  1 EMax= 5.33D-15
 Solved reduced A of dimension   432 with    60 vectors.
 Isotropic polarizability for W=    0.000000       90.80 Bohr**3.
 End of Minotr F.D. properties file   721 does not exist.
 End of Minotr F.D. properties file   722 does not exist.
 End of Minotr F.D. properties file   788 does not exist.
   1 Symmetry operations used in ECPInt.
 ECPInt:  NShTT=   14028 NPrTT=   39320 LenC2=   13311 LenP2D=   29142.
 LDataN:  DoStor=T MaxTD1= 8 Len=  415
 Calling FoFJK, ICntrl=    100127 FMM=F ISym2X=0 I1Cent= 0 IOpClX= 0 NMat=1 NMatS=1 NMatT=0.
 ***** Axes restored to original set *****
 -------------------------------------------------------------------
 Center     Atomic                   Forces (Hartrees/Bohr)
 Number     Number              X              Y              Z
 -------------------------------------------------------------------
      1       14           0.000118979   -0.000563931   -0.000223688
      2        8           0.000033716    0.000036924   -0.000006470
      3        8          -0.000130768    0.000165511    0.000205858
      4        1          -0.000660877    0.000094877    0.000144656
      5        8           0.000084497    0.000047755    0.000020952
      6        8           0.000135161   -0.000146710    0.000140543
      7        6          -0.000126239    0.000106767   -0.000065069
      8        1          -0.000002471   -0.000004788   -0.000016368
      9        1          -0.000007842    0.000007857   -0.000017617
     10        6           0.000086841    0.000014627    0.000034834
     11        1          -0.000011551    0.000004364   -0.000001450
     12        1           0.000013987   -0.000007811    0.000008596
     13        8           0.000500447    0.000258803   -0.000225798
     14        6          -0.000002963   -0.000009092    0.000004386
     15        1          -0.000002504    0.000002424    0.000002039
     16        1          -0.000001288    0.000003909   -0.000000512
     17        6          -0.000013956   -0.000016637    0.000006506
     18        1          -0.000010425    0.000006311   -0.000008234
     19        1          -0.000002744   -0.000001161   -0.000003164
 -------------------------------------------------------------------
 Cartesian Forces:  Max     0.000660877 RMS     0.000157768
 FormGI is forming the generalized inverse of G from B-inverse, IUseBI=4.

 GradGradGradGradGradGradGradGradGradGradGradGradGradGradGradGradGradGrad
 Berny optimization.
 Internal  Forces:  Max     0.002934615 RMS     0.000431407
 Search for a saddle point.
 Step number   2 out of a maximum of  102
 All quantities printed in internal units (Hartrees-Bohrs-Radians)
 Swapping is turned off.
 Second derivative matrix not updated -- analytic derivatives used.
 ITU=  0  0
     Eigenvalues ---   -0.05477   0.00209   0.00333   0.00384   0.00881
     Eigenvalues ---    0.02118   0.04267   0.04578   0.04679   0.05007
     Eigenvalues ---    0.05047   0.05305   0.05664   0.07435   0.07625
     Eigenvalues ---    0.08210   0.09405   0.09565   0.09799   0.10346
     Eigenvalues ---    0.10359   0.10770   0.11333   0.12900   0.14114
     Eigenvalues ---    0.15453   0.16809   0.18497   0.19847   0.22415
     Eigenvalues ---    0.24861   0.25417   0.26735   0.27720   0.27889
     Eigenvalues ---    0.28584   0.29498   0.30117   0.30956   0.31116
     Eigenvalues ---    0.32125   0.32182   0.32493   0.34395   0.35010
     Eigenvalues ---    0.37440   0.40191   0.42197   0.45981   0.48102
     Eigenvalues ---    2.35932
 Eigenvectors required to have negative eigenvalues:
                          D11       R6        D6        D1        A4
   1                   -0.44530  -0.39944   0.34874   0.29228  -0.26470
                          A5        D21       A19       D3        R2
   1                    0.21865  -0.20434  -0.18901  -0.16629   0.14020
 RFO step:  Lambda0=1.841553065D-07 Lambda=-1.81440596D-05.
 Linear search not attempted -- option 19 set.
 Iteration  1 RMS(Cart)=  0.00572088 RMS(Int)=  0.00001869
 Iteration  2 RMS(Cart)=  0.00005339 RMS(Int)=  0.00000019
 Iteration  3 RMS(Cart)=  0.00000000 RMS(Int)=  0.00000019
 Variable       Old X    -DE/DX   Delta X   Delta X   Delta X     New X
                                 (Linear)    (Quad)   (Total)
    R1        3.16760   0.00001   0.00000   0.00050   0.00050   3.16810
    R2        3.03696   0.00051   0.00000   0.00082   0.00082   3.03778
    R3        3.17897   0.00007   0.00000   0.00074   0.00074   3.17972
    R4        3.09958  -0.00044   0.00000   0.00090   0.00090   3.10048
    R5        2.65069  -0.00003   0.00000  -0.00026  -0.00026   2.65043
    R6        1.96653   0.00061   0.00000   0.00489   0.00489   1.97141
    R7        2.64567  -0.00002   0.00000  -0.00020  -0.00020   2.64547
    R8        2.67009  -0.00062   0.00000  -0.00045  -0.00045   2.66964
    R9        2.07442  -0.00001   0.00000   0.00002   0.00002   2.07444
   R10        2.07296   0.00001   0.00000   0.00004   0.00004   2.07301
   R11        2.88923  -0.00018   0.00000  -0.00015  -0.00015   2.88909
   R12        2.10596   0.00001   0.00000  -0.00038  -0.00038   2.10558
   R13        2.10457  -0.00001   0.00000  -0.00050  -0.00050   2.10407
   R14        2.56764   0.00025   0.00000   0.00076   0.00076   2.56840
   R15        2.06983  -0.00000   0.00000   0.00005   0.00005   2.06988
   R16        2.07686   0.00000   0.00000   0.00007   0.00007   2.07693
   R17        2.90125  -0.00003   0.00000  -0.00018  -0.00018   2.90107
   R18        2.07662  -0.00001   0.00000   0.00006   0.00006   2.07668
   R19        2.06831  -0.00000   0.00000   0.00004   0.00004   2.06834
    A1        2.03411   0.00000   0.00000   0.00005   0.00005   2.03416
    A2        1.66062  -0.00007   0.00000  -0.00065  -0.00065   1.65997
    A3        1.95782   0.00011   0.00000  -0.00036  -0.00037   1.95746
    A4        1.90345   0.00030   0.00000   0.00016   0.00016   1.90360
    A5        2.05427  -0.00050   0.00000   0.00134   0.00134   2.05561
    A6        1.79005   0.00035   0.00000  -0.00116  -0.00116   1.78889
    A7        1.91791   0.00005   0.00000   0.00011   0.00011   1.91802
    A8        1.67481   0.00050   0.00000  -0.00165  -0.00165   1.67315
    A9        1.93150   0.00003   0.00000   0.00023   0.00023   1.93173
   A10        2.17367  -0.00293   0.00000   0.00025   0.00025   2.17392
   A11        1.90153   0.00040   0.00000  -0.00044  -0.00044   1.90109
   A12        1.87702   0.00078   0.00000   0.00056   0.00056   1.87758
   A13        1.94359  -0.00183   0.00000   0.00050   0.00050   1.94410
   A14        1.89518  -0.00017   0.00000  -0.00037  -0.00037   1.89481
   A15        1.89663   0.00039   0.00000   0.00021   0.00021   1.89684
   A16        1.94886   0.00046   0.00000  -0.00049  -0.00049   1.94837
   A17        1.86510   0.00002   0.00000   0.00075   0.00075   1.86585
   A18        1.85908   0.00016   0.00000   0.00050   0.00050   1.85957
   A19        1.93175  -0.00049   0.00000  -0.00051  -0.00051   1.93124
   A20        1.83888   0.00001   0.00000   0.00047   0.00047   1.83935
   A21        1.97919  -0.00000   0.00000  -0.00082  -0.00082   1.97837
   A22        1.98129   0.00033   0.00000  -0.00022  -0.00022   1.98106
   A23        1.92363   0.00000   0.00000   0.00010   0.00010   1.92373
   A24        1.92440  -0.00000   0.00000   0.00005   0.00005   1.92445
   A25        1.86598  -0.00001   0.00000  -0.00016  -0.00016   1.86582
   A26        1.88572  -0.00000   0.00000  -0.00002  -0.00002   1.88570
   A27        1.94438   0.00001   0.00000   0.00007   0.00007   1.94445
   A28        1.92015  -0.00000   0.00000  -0.00005  -0.00005   1.92010
   A29        1.86627  -0.00001   0.00000  -0.00021  -0.00021   1.86605
   A30        1.92487  -0.00000   0.00000   0.00010   0.00010   1.92497
   A31        1.91752   0.00001   0.00000   0.00011   0.00011   1.91763
   A32        1.91969   0.00001   0.00000  -0.00013  -0.00013   1.91956
   A33        1.94860  -0.00001   0.00000   0.00010   0.00010   1.94870
   A34        1.88725   0.00000   0.00000   0.00004   0.00004   1.88729
    D1       -2.23894  -0.00034   0.00000  -0.00101  -0.00101  -2.23995
    D2       -0.24404  -0.00003   0.00000  -0.00119  -0.00119  -0.24523
    D3        1.60278   0.00034   0.00000  -0.00284  -0.00284   1.59994
    D4       -1.38008   0.00008   0.00000   0.00143   0.00143  -1.37865
    D5        3.04988  -0.00002   0.00000   0.00211   0.00211   3.05199
    D6        1.02205  -0.00038   0.00000   0.00263   0.00263   1.02468
    D7       -0.12821   0.00002   0.00000   0.00055   0.00055  -0.12766
    D8        1.97297   0.00008   0.00000   0.00036   0.00036   1.97333
    D9       -2.11963  -0.00014   0.00000   0.00135   0.00135  -2.11828
   D10        1.24434   0.00017   0.00000   0.01244   0.01244   1.25678
   D11       -1.18836   0.00064   0.00000   0.01116   0.01116  -1.17720
   D12        3.00636   0.00028   0.00000   0.01106   0.01106   3.01742
   D13        0.50799   0.00003   0.00000   0.00144   0.00144   0.50943
   D14       -1.57892   0.00002   0.00000   0.00167   0.00167  -1.57724
   D15        2.62559   0.00002   0.00000   0.00150   0.00150   2.62708
   D16        2.54036  -0.00001   0.00000   0.00020   0.00020   2.54057
   D17       -1.66250  -0.00001   0.00000   0.00028   0.00028  -1.66222
   D18        0.42451  -0.00001   0.00000   0.00015   0.00015   0.42467
   D19       -1.35108   0.00027   0.00000  -0.01647  -0.01647  -1.36755
   D20        2.88108  -0.00017   0.00000  -0.01611  -0.01611   2.86497
   D21        0.74064  -0.00012   0.00000  -0.01619  -0.01619   0.72445
   D22        1.21732   0.00015   0.00000   0.00488   0.00488   1.22220
   D23       -3.10681   0.00024   0.00000   0.00597   0.00597  -3.10083
   D24       -0.94543   0.00045   0.00000   0.00571   0.00571  -0.93972
   D25       -2.97126  -0.00023   0.00000   0.00478   0.00478  -2.96648
   D26       -1.01219  -0.00014   0.00000   0.00587   0.00587  -1.00632
   D27        1.14918   0.00007   0.00000   0.00561   0.00561   1.15479
   D28       -0.88126   0.00010   0.00000   0.00415   0.00415  -0.87710
   D29        1.07781   0.00019   0.00000   0.00525   0.00525   1.08305
   D30       -3.04400   0.00039   0.00000   0.00499   0.00499  -3.03902
   D31       -0.59524   0.00000   0.00000  -0.00095  -0.00095  -0.59619
   D32        1.49500   0.00000   0.00000  -0.00103  -0.00103   1.49397
   D33       -2.69305   0.00001   0.00000  -0.00101  -0.00101  -2.69406
   D34       -2.69788  -0.00000   0.00000  -0.00102  -0.00102  -2.69890
   D35       -0.60764  -0.00000   0.00000  -0.00110  -0.00110  -0.60874
   D36        1.48749   0.00000   0.00000  -0.00107  -0.00107   1.48642
   D37        1.49451  -0.00000   0.00000  -0.00101  -0.00101   1.49350
   D38       -2.69843  -0.00001   0.00000  -0.00109  -0.00109  -2.69953
   D39       -0.60330   0.00000   0.00000  -0.00107  -0.00107  -0.60437
         Item               Value     Threshold  Converged?
 Maximum Force            0.002935     0.000450     NO 
 RMS     Force            0.000431     0.000300     NO 
 Maximum Displacement     0.018521     0.001800     NO 
 RMS     Displacement     0.005704     0.001200     NO 
 Predicted change in Energy=-8.993785D-06
 GradGradGradGradGradGradGradGradGradGradGradGradGradGradGradGradGradGrad

                          Input orientation:                          
 ---------------------------------------------------------------------
 Center     Atomic      Atomic             Coordinates (Angstroms)
 Number     Number       Type             X           Y           Z
 ---------------------------------------------------------------------
      1         14           0        0.234147    0.305660   -0.198282
      2          8           0        0.949469   -0.209319    1.227802
      3          8           0       -0.325105    1.812635   -0.218227
      4          1           0       -1.205842    1.606373    0.301464
      5          8           0        1.646588    0.231376   -1.109736
      6          8           0       -0.692048   -0.862780   -0.882989
      7          6           0       -1.938383   -1.295864   -0.378166
      8          1           0       -1.763901   -1.971792    0.469020
      9          1           0       -2.441561   -1.857299   -1.175025
     10          6           0       -2.785382   -0.117208    0.102156
[...]
 99,-0.03918003,0.00017996,0.00031229,0.00885882,0.00242658,0.02144463,
 0.00008903,-0.01057528,-0.00520118,-0.00588632,0.00451047,-0.04963021,
 0.08586132,0.06437514,0.00016519,-0.09288894,-0.00090143,0.01060717,-0
 .02381941,0.00333841,0.00016957,0.00500151,0.00006792,-0.00014559,0.00
 147077,0.03378853,-0.03904454,0.27190078,-0.11203589,-0.08417830,-0.04
 468451,-0.00772826,-0.00748402,-0.01345927,0.01404990,-0.00200799,-0.0
 0650969,-0.00870394,-0.00579061,0.00430352,-0.02796970,-0.01281255,-0.
 00417587,0.39853870,-0.08387991,-0.14068580,-0.05911696,-0.00220850,0.
 00508956,-0.00186438,-0.00314894,-0.01744806,-0.01374290,-0.00807657,-
 0.00220140,0.00573534,-0.01319274,0.00007660,-0.00230251,0.18815845,0.
 24495582,-0.04424225,-0.05789617,-0.06823353,-0.01739095,-0.00573415,-
 0.00688512,-0.00188490,-0.00136761,0.00645677,0.00157864,0.00240576,-0
 .00169836,0.00873021,0.00255575,0.00560994,-0.03256517,0.04680961,0.15
 547302,-0.02558258,-0.02846215,-0.01263243,0.00509439,0.00176216,0.004
 44983,-0.00528700,0.00550342,0.00648570,0.00730292,0.00204869,-0.00494
 981,0.00578122,0.00137591,0.00069822,-0.18583328,-0.05578666,0.0425118
 2,0.47204404,-0.02284988,-0.02014867,-0.00427079,0.00234461,0.00007481
 ,0.00274068,0.00003910,0.00233781,0.00127262,0.00218017,-0.00095958,-0
 .00240033,0.00272799,0.00253070,-0.00034164,-0.04066661,-0.08277273,0.
 01540168,0.02971101,0.52254443,-0.00674326,0.00061835,0.00432751,-0.00
 155846,-0.00069690,-0.00381006,0.00061116,-0.00162870,-0.00146313,-0.0
 0074059,-0.00073715,0.00028341,-0.00361312,-0.00194923,0.00060515,0.05
 496970,0.02080338,-0.08863098,0.06835218,-0.00390928,0.56953378,0.0025
 9163,0.00179799,0.00554086,0.00020182,0.00052367,-0.00048316,0.0003658
 0,-0.00084920,-0.00085235,-0.00054016,-0.00025853,0.00017699,-0.000974
 28,0.00013084,-0.00059263,-0.01143968,-0.02886201,0.03024837,-0.054877
 79,0.03094315,-0.04373165,0.07082629,0.00208288,0.00165403,0.00436764,
 -0.00007549,0.00026871,-0.00087106,0.00018431,-0.00052824,-0.00090465,
 -0.00063152,-0.00016861,0.00058263,-0.00089733,-0.00007051,-0.00041727
 ,-0.01184233,-0.00863649,0.01125567,0.02952678,-0.13855243,0.10767963,
 -0.02621789,0.15021987,-0.00323053,-0.00297408,-0.00357796,0.00095027,
 -0.00004641,0.00102476,0.00011579,0.00073763,0.00053281,0.00012912,-0.
 00008936,-0.00009925,0.00106066,0.00003752,0.00029102,0.01423107,0.012
 22194,-0.00616070,-0.04058276,0.11163937,-0.19465874,0.03280290,-0.128
 37001,0.21112549,0.00029461,0.00320380,0.00161599,-0.00103520,-0.00024
 984,-0.00098103,0.00068287,-0.00119657,-0.00071916,-0.00105319,-0.0002
 2822,0.00077948,-0.00149696,-0.00044993,0.00015333,-0.03175638,-0.0250
 8006,-0.01451373,-0.08856651,-0.04630588,-0.07739647,-0.00103091,-0.00
 269721,-0.00670233,0.11162272,0.00137737,0.00048677,0.00008291,-0.0008
 4755,0.00019685,-0.00056962,-0.00060368,-0.00085880,0.00034841,0.00052
 992,0.00039770,-0.00045994,-0.00076813,-0.00003429,0.00004672,-0.01276
 385,-0.00672295,-0.00494682,-0.04758441,-0.11042524,-0.08828863,0.0086
 6687,0.01059738,0.01386057,0.06439652,0.11862404,0.00277454,0.00064950
 ,-0.00046271,-0.00037570,0.00016115,0.00029441,-0.00108501,-0.00013732
 ,0.00071175,0.00129204,0.00058003,-0.00083622,-0.00010162,0.00018122,0
 .00007213,0.00979379,0.00874263,0.01362434,-0.08281794,-0.09257496,-0.
 19177286,-0.00927516,-0.01276303,-0.01718176,0.08550452,0.09970498,0.2
 0097374,-0.01548703,0.00786443,0.00947981,0.00219305,-0.00137860,-0.00
 032593,0.00887392,0.00204121,-0.00342785,-0.01382692,-0.00808396,0.001
 05306,0.00065878,-0.00149284,-0.00069994,-0.04220251,0.01272592,0.0129
 7334,-0.10408788,0.04326598,0.00695681,-0.00534575,0.00852960,0.001716
 23,0.01220050,-0.01608473,-0.00871259,0.52418140,-0.00934233,0.0140627
 9,0.01194439,0.00214461,-0.00219847,-0.00101699,0.00781465,0.00160971,
 -0.00367596,-0.01101738,-0.00975167,-0.00303213,-0.00041446,-0.0018496
 6,-0.00078134,-0.01831737,0.00021904,-0.00337593,0.06096257,-0.1327254
 2,-0.01106759,0.01291649,-0.01598756,-0.00675811,0.00671953,-0.0068892
 9,0.00113115,0.03419883,0.48549099,-0.00915500,0.00869214,0.01121883,0
 .00262372,-0.00213894,-0.00032858,0.01807089,0.00390375,-0.01462199,-0
 .01733618,-0.00984067,0.01560550,0.00135078,-0.00135798,-0.00090703,0.
 01471584,-0.01480878,-0.01027568,0.01380432,-0.00443366,-0.07590821,-0
 .01692164,0.02254535,0.00518283,0.01207229,-0.01823209,-0.00660431,0.0
 0544531,-0.03514777,0.50589714,0.00044644,0.00018372,-0.00208392,-0.00
 051607,0.00004899,0.00023580,-0.00054982,-0.00076873,0.00158505,0.0017
 0685,0.00114834,-0.00236689,-0.00001262,-0.00003541,0.00018499,0.00232
 661,-0.00132090,0.00008404,-0.00511119,0.01590461,-0.01486423,-0.00162
 631,0.00329133,0.00043250,0.00045980,-0.00036391,0.00050501,-0.0624142
 2,0.02700229,-0.03102338,0.06830056,0.00008444,-0.00020760,-0.00029553
 ,0.00000825,0.00012189,0.00001239,0.00146989,-0.00000464,-0.00052943,-
 0.00129234,0.00020041,0.00011870,0.00022344,-0.00002068,-0.00007829,-0
 .00061616,0.00338754,-0.00134881,0.00568014,-0.01989637,0.02358096,0.0
 0407999,-0.00393962,-0.00202431,-0.00074177,0.00012255,-0.00024458,0.0
 2628930,-0.11401741,0.08509480,-0.02966278,0.12366279,0.00238160,-0.00
 070394,-0.00324399,-0.00098734,0.00040728,0.00023778,-0.00356328,-0.00
 134357,0.00344711,0.00498590,0.00301334,-0.00382718,-0.00041949,0.0001
 6075,0.00037312,-0.00165574,-0.00009652,0.00184533,0.00442987,-0.00433
 357,0.00447873,0.00177143,-0.00161800,0.00094472,-0.00051704,0.0013927
 5,0.00120852,-0.03367403,0.09273465,-0.16399625,0.05246784,-0.09374794
 ,0.20061206,0.00490882,-0.00084955,-0.00101160,-0.00127388,0.00062863,
 -0.00044284,-0.00400317,-0.00225908,0.00323151,0.00310129,0.00379488,-
 0.00330753,-0.00121925,0.00016713,0.00008936,-0.00399076,0.00393028,0.
 00132365,-0.01724147,-0.01017689,0.01225091,0.00023310,-0.00003193,-0.
 00135133,0.00014907,0.00125559,0.00098114,-0.17768925,-0.04854443,0.07
 750038,0.00594280,0.00209009,-0.00038342,0.21286749,0.00243381,-0.0046
 5756,-0.00294151,-0.00062942,0.00064531,0.00011348,-0.00373444,-0.0008
 5293,0.00300121,0.00299935,0.00313260,-0.00318955,-0.00006046,0.000627
 56,0.00016562,0.00735983,-0.00082314,-0.00169652,0.01783991,0.00897703
 ,-0.00844416,-0.00050744,0.00116337,0.00044025,-0.00146963,0.00071024,
 0.00016933,-0.05328065,-0.07171449,0.03612724,-0.01523594,-0.00610158,
 0.01290742,0.07217028,0.08339979,-0.00074999,-0.00233961,-0.00190511,0
 .00006137,0.00021355,0.00027192,-0.00190986,-0.00073025,0.00217005,0.0
 0097931,0.00114281,-0.00208299,0.00034951,0.00028725,0.00011050,0.0039
 8543,-0.00183520,0.00091018,0.00583342,0.00835221,-0.00401627,-0.00018
 129,-0.00048604,0.00089276,-0.00045941,0.00000112,-0.00034574,0.075239
 21,0.03112467,-0.09067589,0.01979026,0.00883246,-0.01183168,-0.0775036
 2,-0.03081209,0.09366975,0.02663131,-0.02080810,-0.02125442,-0.0081348
 4,0.00524464,-0.00027966,-0.04404179,-0.02592288,0.03604122,0.00384896
 ,0.00915867,-0.00751579,-0.00330493,0.00313228,0.00119203,0.01225845,0
 .01603478,0.01052796,-0.00120448,-0.00551253,0.00447020,0.00175310,-0.
 00129104,0.00080037,-0.00093431,0.00264860,0.00125660,-0.12656046,-0.0
 6403400,-0.07053739,-0.00898726,-0.00746651,-0.02508359,-0.02231752,-0
 .02801812,-0.02523562,0.16943956,-0.00877625,-0.03438827,0.00373560,0.
 00170052,0.00352771,-0.00076199,-0.05479616,0.00117490,0.03146441,0.03
 855510,0.00513862,-0.01587237,-0.00236559,0.00467961,0.00038718,0.0056
 8032,0.00794192,-0.00111971,-0.02366612,-0.03143569,-0.03567415,-0.002
 26679,0.00404601,0.00105148,0.00438674,-0.00605971,-0.00552257,-0.0548
 7067,-0.14630328,-0.07075105,-0.00016167,0.01665949,-0.00862750,-0.021
 98239,-0.01452100,-0.01383774,0.11780967,0.18897400,-0.00896535,0.0059
 9901,-0.00970799,-0.00141383,-0.00014638,0.00269380,0.02810059,0.01468
 705,-0.00032041,-0.00739654,-0.00429750,-0.02422738,0.00211413,-0.0011
 4229,0.00080859,-0.00195930,-0.00159880,0.00159580,-0.00523776,-0.0268
 4569,-0.01967156,0.00135936,-0.00117800,0.00183339,0.00104811,-0.00296
 334,0.00035185,-0.06613919,-0.07216801,-0.17452423,-0.02491121,-0.0193
 6897,-0.03026268,-0.01151585,-0.00582448,0.01290473,0.09552242,0.11481
 757,0.23883109,-0.05219875,0.00356121,0.01605038,-0.04120073,0.0002337
 5,0.01838426,0.00553738,-0.00200994,-0.00341946,-0.00172945,-0.0013316
 3,0.00165963,-0.18449045,0.02194669,-0.06689455,0.00457756,0.00236106,
 -0.00137543,-0.00170083,-0.00143253,0.00098809,0.00024179,0.00032198,-
 0.00037247,0.00036670,0.00019629,0.00009222,-0.00014652,0.00011419,-0.
 00035836,-0.00004466,-0.00005144,0.00007535,0.00045661,0.00006155,-0.0
 0014793,0.00117717,0.00103667,-0.00115367,0.57129087,0.00902996,0.0031
 7346,-0.00651251,0.01470741,0.00678994,-0.00480091,0.00048181,-0.00107
 471,-0.00076947,0.00022992,-0.00013159,-0.00066868,0.02962700,-0.07214
 805,0.01566315,-0.00359148,-0.00208443,0.00178536,0.00011467,0.0001147
 5,-0.00013472,-0.00016151,-0.00012795,0.00012604,-0.00013362,-0.000069
 30,0.00001227,-0.00015717,-0.00023569,-0.00010427,0.00004913,0.0000177
 6,0.00005393,-0.00004248,0.00006978,0.00004589,0.00020338,-0.00020775,
 0.00043394,-0.00992583,0.56018543,-0.00774218,-0.00311580,0.01852280,0
 .01657650,0.00277902,-0.02438726,0.00542530,-0.00215405,-0.00467087,-0
 .00143922,-0.00160155,0.00104871,-0.08727168,0.02154719,-0.12928906,0.
 00505784,0.00298759,-0.00212680,-0.00120624,-0.00075329,0.00091779,0.0
 0026361,0.00027305,-0.00033752,0.00028308,0.00016537,0.00000662,-0.000
 11164,0.00011869,-0.00028871,-0.00004504,-0.00002281,0.00004469,0.0003
 0412,0.00002397,-0.00009895,0.00083963,0.00087418,-0.00087851,-0.03940
 789,0.06401483,0.46347569,0.00329759,0.00229813,-0.00349394,-0.0007037
 1,-0.00090480,0.00225355,-0.00218645,0.00081353,0.00113813,0.00063260,
 0.00060552,-0.00034697,-0.03283405,0.01645259,0.00362501,-0.00121366,-
 0.00092235,0.00000932,0.00044093,0.00016216,-0.00017407,-0.00005657,-0
 .00005367,0.00008903,-0.00011593,-0.00006748,-0.00004352,0.00018682,0.
 00012554,0.00024692,-0.00001316,0.00002049,-0.00006912,-0.00013046,-0.
 00005675,0.00001975,-0.00060034,-0.00037666,0.00012468,-0.14232163,0.0
 8451675,0.08111979,0.17119902,-0.00259182,-0.00145163,0.00301836,-0.00
 340018,0.00054222,0.00252392,0.00088543,-0.00003150,-0.00049605,-0.000
 35972,-0.00028062,0.00023288,0.01137575,0.00075368,0.00305384,0.000575
 55,0.00031656,-0.00016332,-0.00024614,-0.00012257,0.00009243,0.0000357
 5,0.00003675,-0.00004352,0.00004597,0.00003124,0.00001668,-0.00006812,
 -0.00002363,-0.00008887,-0.00000126,-0.00001226,0.00001971,0.00006565,
 0.00002264,-0.00001554,0.00021851,0.00022800,-0.00013330,0.08842318,-0
 .13436092,-0.07654526,-0.10149004,0.14079198,-0.00095792,0.00205944,-0
 .00464010,0.00502792,0.00203477,-0.00289807,-0.00063361,0.00009901,0.0
 0093484,0.00013384,0.00030382,-0.00008765,-0.02344638,0.01452020,0.011
 32903,-0.00003657,-0.00013626,0.00044771,-0.00007553,-0.00004108,-0.00
 004774,-0.00003255,-0.00003101,-0.00000108,0.00001761,0.00000996,0.000
 03356,-0.00008979,-0.00011345,-0.00009900,0.00003062,-0.00000041,0.000
 05229,0.00003753,0.00002112,-0.00000405,0.00021300,-0.00013764,0.00017
 826,0.08661939,-0.07619502,-0.11955192,-0.08565884,0.07889223,0.123334
 72,0.00341919,-0.00285230,-0.00611875,0.00123862,0.00082030,0.00077697
 ,-0.00013214,0.00083379,0.00052732,0.00000285,0.00003661,0.00003435,-0
 .02986627,-0.01770633,-0.01860647,-0.00221756,-0.00072589,0.00072889,0
 .00047158,0.00023954,-0.00022429,-0.00009464,-0.00007989,0.00008507,-0
 .00012532,-0.00005439,-0.00000363,-0.00004243,-0.00015669,-0.00002632,
 0.00000002,0.00001711,-0.00001106,-0.00007404,0.00003435,0.00005032,-0
 .00004931,0.00016921,0.00013231,-0.08896650,-0.08327792,-0.01557913,0.
 01007436,0.01685099,0.00531426,0.10830049,0.00240499,-0.00032223,-0.00
 099750,-0.00112713,0.00188380,0.00033463,-0.00080928,0.00049369,0.0004
 1625,0.00017601,0.00011870,-0.00014388,-0.00025937,0.01576019,0.000221
 64,-0.00038288,-0.00002424,-0.00001211,0.00028675,0.00011859,-0.000050
 72,-0.00000009,-0.00000874,0.00000876,-0.00003811,-0.00001837,-0.00002
 083,0.00007080,0.00000667,0.00006417,-0.00001460,0.00002180,-0.0000363
 9,-0.00006679,-0.00001744,0.00001349,-0.00023056,-0.00002807,0.0000915
 9,-0.08556443,-0.23525847,-0.05100563,-0.00696740,-0.01617214,-0.00405
 306,0.09694966,0.24932832,0.00355680,-0.00097423,-0.00452181,-0.000679
 09,-0.00189332,0.00138780,-0.00058133,0.00043365,0.00046740,0.00014713
 ,0.00014822,-0.00015588,-0.02471881,-0.01212530,-0.00733303,-0.0015171
 9,-0.00068708,0.00053700,0.00034501,0.00021484,-0.00020467,-0.00008101
 ,-0.00006985,0.00008760,-0.00008313,-0.00004660,-0.00000354,0.00000480
 ,-0.00006110,0.00005104,0.00000414,0.00000697,-0.00001873,-0.00006984,
 0.00001074,0.00002998,-0.00013694,-0.00004822,0.00013843,-0.01737459,-
 0.05249968,-0.06387232,-0.00544869,-0.01690047,-0.00269024,0.03424693,
 0.05497191,0.07275090,-0.02481691,0.02027540,-0.03903218,-0.20653116,0
 .06496812,0.01472938,0.00219841,-0.00348176,0.00466942,-0.00122161,0.0
 0028223,0.00019097,-0.01799528,0.01950379,-0.01793155,0.00405567,0.001
 10591,0.00494988,-0.00213646,-0.00087145,0.00065735,-0.00019796,-0.000
 09609,-0.00031431,0.00046218,0.00019043,0.00026921,-0.00089520,-0.0005
 5977,-0.00096859,0.00015085,-0.00012068,0.00040275,0.00048961,0.000221
 35,-0.00011616,0.00223500,0.00007103,0.00040166,-0.07664214,-0.0301858
 6,0.03857612,-0.00530973,-0.01100193,0.01426441,-0.00276416,-0.0037022
 0,0.00993070,0.50403399,0.01686131,-0.00737733,0.01615423,0.05815478,-
 0.09554641,-0.00923215,-0.00049976,0.00015168,0.00084907,0.00021682,-0
 .00009011,-0.00012644,0.00888734,-0.00055802,0.00783196,-0.00237825,-0
 .00205541,-0.00410021,0.00130198,0.00057852,-0.00045527,-0.00001538,-0
 .00001796,0.00041250,-0.00027633,-0.00019139,-0.00013454,0.00074059,0.
 00071143,0.00094966,-0.00009108,-0.00003056,-0.00029635,-0.00029875,-0
 .00017154,0.00002998,-0.00210622,0.00020476,-0.00051031,-0.02167546,-0
 .11166838,0.03478364,0.00704749,0.00847162,-0.01837047,-0.01073142,-0.
 01625562,0.02680701,0.00328609,0.55840330,-0.01759114,0.00823396,0.000
 86796,0.03414501,-0.01342469,-0.07862858,-0.00037441,0.00183270,-0.002
 18766,0.00048621,-0.00020146,-0.00003618,-0.00985614,0.01793345,-0.040
 08259,-0.00022338,-0.00085986,-0.00311527,0.00060186,0.00032991,-0.000
 01580,0.00000798,-0.00000129,0.00013215,-0.00007545,-0.00010917,-0.000
 05429,0.00030540,0.00018989,0.00030642,-0.00002705,-0.00000614,-0.0000
 6628,-0.00011202,-0.00006984,-0.00001262,-0.00079738,0.00008550,0.0001
 5132,0.01735612,0.03980534,-0.12855114,0.00591461,0.00668808,-0.006916
 62,-0.00292248,-0.00398349,0.00548681,0.09466986,0.01794078,0.52994204
 ,0.00096682,0.00224534,0.00622021,-0.01245491,0.04140545,0.00600912,-0
 .00087339,0.00054830,-0.00125933,0.00039586,0.00009574,-0.00009291,0.0
 0199360,0.00017454,-0.00018038,0.00023376,-0.00068815,-0.00013120,-0.0
 0009915,0.00001345,-0.00005570,-0.00004226,-0.00001200,0.00006034,-0.0
 0000451,-0.00003368,-0.00001010,0.00014880,0.00024696,0.00026172,-0.00
 001190,-0.00002491,-0.00006037,-0.00005956,-0.00006729,-0.00002283,-0.
 00045499,-0.00031271,-0.00014172,-0.00341978,-0.01287947,-0.00220678,0
 .00030018,-0.00010046,-0.00003856,-0.00012178,-0.00125525,0.00273358,-
 0.05066243,-0.03331875,-0.00986321,0.06429391,-0.00255488,-0.00098092,
 -0.00648019,0.01952886,-0.01337098,-0.00201122,0.00107138,-0.00041487,
 0.00081743,-0.00054612,-0.00017349,0.00018563,0.00085300,0.00140815,0.
 00107439,0.00066739,0.00099434,0.00096219,-0.00028566,-0.00018283,0.00
 019108,0.00001668,0.00003548,-0.00016517,0.00008178,0.00007333,0.00004
 888,-0.00026554,-0.00034130,-0.00039292,0.00002526,0.00002405,0.000100
 12,0.00013303,0.00009705,0.00000669,0.00076757,0.00036446,0.00014621,-
 0.00513201,-0.01506677,-0.00454258,-0.00061757,0.00128714,0.00055663,-
 0.00088132,-0.00020670,0.00303804,-0.03194226,-0.27546902,-0.03779145,
 0.02156744,0.30642888,-0.00080900,0.00098833,-0.00242927,0.00606925,-0
 .00763441,0.00424340,0.00015811,-0.00026871,0.00029625,-0.00012218,-0.
 00000490,0.00001826,-0.00056400,-0.00202480,0.00122400,0.00056213,-0.0
 0000107,0.00043094,-0.00032289,-0.00019618,0.00019934,0.00001231,0.000
 04502,-0.00007872,0.00003911,0.00003727,0.00000421,-0.00005776,-0.0000
 5609,-0.00009954,0.00000608,0.00000921,0.00002836,0.00005839,0.0000178
 8,-0.00001288,0.00020917,0.00005661,0.00000332,0.00638784,0.02755705,0
 .00476416,-0.00041765,-0.00043568,0.00146296,0.00150771,0.00335813,-0.
 00364352,-0.00950114,-0.04081444,-0.06266924,0.00166017,0.04521011,0.0
 6012368,-0.00167852,-0.00258673,0.00611438,-0.03575867,0.00768986,-0.0
 2316001,-0.00026660,0.00091655,-0.00068232,0.00020903,-0.00014804,-0.0
 0003486,0.00212371,-0.00178023,0.00246986,-0.00094903,-0.00042371,-0.0
 0156249,0.00059351,0.00028398,-0.00015457,0.00001280,-0.00001049,0.000
 08039,-0.00011922,-0.00008978,-0.00004380,0.00025488,0.00014076,0.0002
 3470,-0.00004671,0.00001344,-0.00009026,-0.00014945,-0.00006029,0.0000
 1814,-0.00075332,0.00016574,0.00003115,0.00921336,0.00139532,0.0065638
 0,-0.00064581,0.00078292,-0.00068883,0.00094704,0.00052989,-0.00027847
 ,-0.12445267,-0.02510501,-0.11164438,-0.00012828,-0.00248703,-0.004875
 63,0.15159396,0.00049505,-0.00039439,-0.00000575,0.01412609,0.00284589
 ,0.01227149,0.00019619,-0.00034232,0.00008151,-0.00008274,-0.00000897,
 0.00003102,0.00072859,-0.00089809,0.00372474,0.00039086,0.00047327,0.0
 0058536,-0.00008285,-0.00005509,0.00007068,0.00002738,0.00001649,-0.00
 006508,0.00003282,0.00002926,0.,-0.00004437,-0.00006276,-0.00008011,0.
 00000261,0.00001245,0.00001382,0.00001673,0.00001429,0.00000634,0.0001
 7187,0.00000427,0.00000168,0.00886671,0.00208286,0.01217343,-0.0005854
 9,-0.00002657,0.00058123,0.00051459,0.00058026,-0.00032552,-0.02794234
 ,-0.05908957,-0.03659222,-0.01760454,-0.00450598,-0.02584333,0.0207728
 4,0.05932470,0.00347156,-0.00065649,-0.00104297,0.00519268,0.00264898,
 0.01177638,-0.00067382,0.00026434,0.00036510,0.00026806,0.00016210,-0.
 00015947,-0.00045468,0.00387907,-0.00447647,-0.00083263,-0.00025018,0.
 00019540,0.00031313,0.00014915,-0.00014568,-0.00003238,-0.00003877,0.0
 0004821,-0.00006577,-0.00003384,-0.00001971,0.00006475,0.00001102,0.00
 006768,-0.00000462,0.00001174,-0.00002592,-0.00007895,-0.00002012,0.00
 002630,-0.00023180,-0.00011960,0.00010218,-0.01710895,-0.00781254,-0.0
 1472740,0.00111202,0.00028388,-0.00083689,0.00008802,0.00082305,0.0015
 0679,-0.11584779,-0.03171866,-0.21455041,-0.00288206,-0.00095388,-0.00
 386570,0.12770321,0.03337075,0.22576258\\-0.00000075,-0.00000084,-0.00
 000047,-0.00000046,0.00000095,0.00000004,-0.00000040,-0.00000012,-0.00
 000112,-0.00000154,-0.00000066,-0.00000007,-0.00000069,0.00000029,-0.0
 0000001,0.00000137,0.00000063,0.00000043,0.00000046,-0.00000111,0.0000
 0004,0.00000061,-0.00000057,0.00000038,0.00000074,-0.00000134,0.000000
 39,-0.00000012,-0.00000134,-0.00000020,-0.00000024,-0.00000150,-0.0000
 0048,0.00000006,-0.00000121,-0.00000012,-0.00000021,-0.00000052,-0.000
 00066,0.,0.00000110,-0.00000006,0.00000026,0.00000112,0.00000038,-0.00
 000032,0.00000127,-0.00000009,0.00000049,0.00000104,0.00000051,0.00000
 069,0.00000102,0.00000077,0.00000006,0.00000176,0.00000035\\\@
 The archive entry for this job was punched.


 BETTER TO HUNT IN FIELDS, FOR HEALTH UNBOUGHT
 THAN FEE THE DOCTOR FOR A NAUSEOUS DRAUGHT.
 THE WISE, FOR CURE, ON EXERCISE DEPEND;
 GOD NEVER MADE HIS WORK FOR MAN TO MEND.
     -- JOHN DRYDEN (1631-1700)
 Job cpu time:       0 days  3 hours  0 minutes 39.3 seconds.
 Elapsed time:       0 days  0 hours 45 minutes 17.4 seconds.
 File lengths (MBytes):  RWF=    330 Int=      0 D2E=      0 Chk=     17 Scr=      1
 Normal termination of Gaussian 16 at Sun Feb 18 20:50:09 2024.
