 Entering Gaussian System, Link 0=/opt/software/gaussian/g16.c01/g16
 Initial command:
 /opt/software/gaussian/g16.c01/l1.exe "/scratch/arhender/16954711/Gau-21371.inp" -scrdir="/scratch/arhender/16954711/"
 Entering Link 1 = /opt/software/gaussian/g16.c01/l1.exe PID=     21374.
  
 Copyright (c) 1988-2019, Gaussian, Inc.  All Rights Reserved.
  
 This is part of the Gaussian(R) 16 program.  It is based on
 the Gaussian(R) 09 system (copyright 2009, Gaussian, Inc.),
 the Gaussian(R) 03 system (copyright 2003, Gaussian, Inc.),
 the Gaussian(R) 98 system (copyright 1998, Gaussian, Inc.),
 the Gaussian(R) 94 system (copyright 1995, Gaussian, Inc.),
 the Gaussian 92(TM) system (copyright 1992, Gaussian, Inc.),
 the Gaussian 90(TM) system (copyright 1990, Gaussian, Inc.),
 the Gaussian 88(TM) system (copyright 1988, Gaussian, Inc.),
 the Gaussian 86(TM) system (copyright 1986, Carnegie Mellon
 University), and the Gaussian 82(TM) system (copyright 1983,
 Carnegie Mellon University). Gaussian is a federally registered
 trademark of Gaussian, Inc.
  
 This software contains proprietary and confidential information,
 including trade secrets, belonging to Gaussian, Inc.
  
 This software is provided under written license and may be
 used, copied, transmitted, or stored only in accord with that
 written license.
  
 The following legend is applicable only to US Government
 contracts under FAR:
  
                    RESTRICTED RIGHTS LEGEND
  
 Use, reproduction and disclosure by the US Government is
 subject to restrictions as set forth in subparagraphs (a)
 and (c) of the Commercial Computer Software - Restricted
 Rights clause in FAR 52.227-19.
  
 Gaussian, Inc.
 340 Quinnipiac St., Bldg. 40, Wallingford CT 06492
  
  
 ---------------------------------------------------------------
 Warning -- This program may not be used in any manner that
 competes with the business of Gaussian, Inc. or will provide
 assistance to any competitor of Gaussian, Inc.  The licensee
 of this program is prohibited from giving any competitor of
 Gaussian, Inc. access to this program.  By using this program,
 the user acknowledges that Gaussian, Inc. is engaged in the
 business of creating and licensing software in the field of
 computational chemistry and represents and warrants to the
 licensee that it is not a competitor of Gaussian, Inc. and that
 it will not use this program in any manner prohibited above.
 ---------------------------------------------------------------
  

 Cite this work as:
 Gaussian 16, Revision C.01,
 M. J. Frisch, G. W. Trucks, H. B. Schlegel, G. E. Scuseria, 
 M. A. Robb, J. R. Cheeseman, G. Scalmani, V. Barone, 
 G. A. Petersson, H. Nakatsuji, X. Li, M. Caricato, A. V. Marenich, 
 J. Bloino, B. G. Janesko, R. Gomperts, B. Mennucci, H. P. Hratchian, 
 J. V. Ortiz, A. F. Izmaylov, J. L. Sonnenberg, D. Williams-Young, 
 F. Ding, F. Lipparini, F. Egidi, J. Goings, B. Peng, A. Petrone, 
 T. Henderson, D. Ranasinghe, V. G. Zakrzewski, J. Gao, N. Rega, 
 G. Zheng, W. Liang, M. Hada, M. Ehara, K. Toyota, R. Fukuda, 
 J. Hasegawa, M. Ishida, T. Nakajima, Y. Honda, O. Kitao, H. Nakai, 
 T. Vreven, K. Throssell, J. A. Montgomery, Jr., J. E. Peralta, 
 F. Ogliaro, M. J. Bearpark, J. J. Heyd, E. N. Brothers, K. N. Kudin, 
 V. N. Staroverov, T. A. Keith, R. Kobayashi, J. Normand, 
 K. Raghavachari, A. P. Rendell, J. C. Burant, S. S. Iyengar, 
 J. Tomasi, M. Cossi, J. M. Millam, M. Klene, C. Adamo, R. Cammi, 
 J. W. Ochterski, R. L. Martin, K. Morokuma, O. Farkas, 
 J. B. Foresman, and D. J. Fox, Gaussian, Inc., Wallingford CT, 2019.
 
 ******************************************
 Gaussian 16:  ES64L-G16RevC.01  3-Jul-2019
                15-Feb-2024 
 ******************************************
 %chk=ScanTS_attempt_PbiL_QbiL_collapse.chk
 %mem=1600MB
 %nprocs=4
 Will use up to    4 processors via shared memory.
 -------------------------------------------------------------
 # opt=(calcall,ts,noeigen) wb97xd/def2tzvpp geom=connectivity
 -------------------------------------------------------------
 1/5=1,10=4,11=1,18=20,26=3,38=1,57=2/1,3;
 2/9=110,12=2,17=6,18=5,40=1/2;
 3/5=44,7=202,11=2,25=1,30=1,71=2,74=-58,140=1/1,2,3;
 4//1;
 5/5=2,38=5/2;
 8/6=4,10=90,11=11/1;
 11/6=1,8=1,9=11,15=111,16=1/1,2,10;
 10/6=1/2;
 6/7=2,8=2,9=2,10=2,18=1,28=1/1;
 7/10=1,25=1/1,2,3,16;
 1/5=1,10=4,11=1,18=20,26=3/3(3);
 2/9=110/2;
 7/8=1,9=1,25=1,44=-1/16;
 99//99;
 2/9=110/2;
 3/5=44,7=202,11=2,25=1,30=1,71=2,74=-58,140=1/1,2,3;
 4/5=5,16=3,69=1/1;
 5/5=2,38=5/2;
 8/6=4,10=90,11=11/1;
 11/6=1,8=1,9=11,15=111,16=1/1,2,10;
 10/6=1/2;
 7/10=1,25=1/1,2,3,16;
 1/5=1,10=4,11=1,18=20,26=3/3(-8);
 2/9=110/2;
 6/7=2,8=2,9=2,10=2,18=1,19=2,28=1/1;
 7/8=1,9=1,25=1,44=-1/16;
 99//99;
 ------------------------------------------------------
 TS attempt PbiL1 collapse to QbiL from scan energy max
 ------------------------------------------------------
 Symbolic Z-matrix:
 Charge = -1 Multiplicity = 1
 Si                    0.34733  -0.24629   0.01555 
 O                     0.93778  -0.99649  -1.3446 
 H                     0.28332  -1.62097  -1.65282 
 O                     2.47359   1.00375   0.02418 
 H                     2.98091   0.50396  -0.61469 
 O                    -0.41835   1.22415  -0.2255 
 O                     1.11088  -0.51323   1.42061 
 H                     1.92715   0.04804   1.1802 
 O                    -1.13591  -1.10324   0.15648 
 C                    -2.18503  -0.21282   0.39135 
 H                    -3.12892  -0.62259   0.0135 
 H                    -2.30362  -0.02739   1.46911 
 C                    -1.80759   1.08842  -0.32532 
 H                    -2.10919   1.03653  -1.38207 
 H                    -2.30039   1.95741   0.12358 
 
 Add virtual bond connecting atoms H8         and O7         Dist= 1.93D+00.
 Add virtual bond connecting atoms H8         and O4         Dist= 3.02D+00.

 GradGradGradGradGradGradGradGradGradGradGradGradGradGradGradGradGradGrad
 Berny optimization.
 Initialization pass.
                           ----------------------------
                           !    Initial Parameters    !
                           ! (Angstroms and Degrees)  !
 --------------------------                            --------------------------
 ! Name  Definition              Value          Derivative Info.                !
 --------------------------------------------------------------------------------
 ! R1    R(1,2)                  1.6618         calculate D2E/DX2 analytically  !
 ! R2    R(1,6)                  1.6753         calculate D2E/DX2 analytically  !
 ! R3    R(1,7)                  1.6213         calculate D2E/DX2 analytically  !
 ! R4    R(1,9)                  1.7188         calculate D2E/DX2 analytically  !
 ! R5    R(2,3)                  0.9557         calculate D2E/DX2 analytically  !
 ! R6    R(4,5)                  0.9567         calculate D2E/DX2 analytically  !
 ! R7    R(4,8)                  1.5964         calculate D2E/DX2 analytically  !
 ! R8    R(6,13)                 1.3994         calculate D2E/DX2 analytically  !
 ! R9    R(7,8)                  1.0194         calculate D2E/DX2 analytically  !
 ! R10   R(9,10)                 1.396          calculate D2E/DX2 analytically  !
 ! R11   R(10,11)                1.0962         calculate D2E/DX2 analytically  !
 ! R12   R(10,12)                1.1            calculate D2E/DX2 analytically  !
 ! R13   R(10,13)                1.5327         calculate D2E/DX2 analytically  !
 ! R14   R(13,14)                1.1002         calculate D2E/DX2 analytically  !
 ! R15   R(13,15)                1.0952         calculate D2E/DX2 analytically  !
 ! A1    A(2,1,6)              116.1597         calculate D2E/DX2 analytically  !
 ! A2    A(2,1,7)              117.884          calculate D2E/DX2 analytically  !
 ! A3    A(2,1,9)               98.5488         calculate D2E/DX2 analytically  !
 ! A4    A(6,1,7)              118.9773         calculate D2E/DX2 analytically  !
 ! A5    A(6,1,9)               93.1531         calculate D2E/DX2 analytically  !
 ! A6    A(7,1,9)              104.6715         calculate D2E/DX2 analytically  !
 ! A7    A(1,2,3)              108.4002         calculate D2E/DX2 analytically  !
 ! A8    A(5,4,8)              110.63           calculate D2E/DX2 analytically  !
 ! A9    A(1,6,13)             112.2626         calculate D2E/DX2 analytically  !
 ! A10   A(1,7,8)               94.708          calculate D2E/DX2 analytically  !
 ! A11   A(4,8,7)              140.7623         calculate D2E/DX2 analytically  !
 ! A12   A(1,9,10)             110.1406         calculate D2E/DX2 analytically  !
 ! A13   A(9,10,11)            110.5298         calculate D2E/DX2 analytically  !
 ! A14   A(9,10,12)            110.6949         calculate D2E/DX2 analytically  !
 ! A15   A(9,10,13)            106.1275         calculate D2E/DX2 analytically  !
 ! A16   A(11,10,12)           107.9334         calculate D2E/DX2 analytically  !
 ! A17   A(11,10,13)           111.6065         calculate D2E/DX2 analytically  !
 ! A18   A(12,10,13)           109.972          calculate D2E/DX2 analytically  !
 ! A19   A(6,13,10)            107.0647         calculate D2E/DX2 analytically  !
 ! A20   A(6,13,14)            110.1962         calculate D2E/DX2 analytically  !
 ! A21   A(6,13,15)            109.9066         calculate D2E/DX2 analytically  !
 ! A22   A(10,13,14)           109.9729         calculate D2E/DX2 analytically  !
 ! A23   A(10,13,15)           111.7867         calculate D2E/DX2 analytically  !
 ! A24   A(14,13,15)           107.9244         calculate D2E/DX2 analytically  !
 ! D1    D(6,1,2,3)            -95.0516         calculate D2E/DX2 analytically  !
 ! D2    D(7,1,2,3)            114.4263         calculate D2E/DX2 analytically  !
 ! D3    D(9,1,2,3)              2.7536         calculate D2E/DX2 analytically  !
 ! D4    D(2,1,6,13)            95.7717         calculate D2E/DX2 analytically  !
 ! D5    D(7,1,6,13)          -114.0431         calculate D2E/DX2 analytically  !
 ! D6    D(9,1,6,13)            -5.3518         calculate D2E/DX2 analytically  !
 ! D7    D(2,1,7,8)             72.3305         calculate D2E/DX2 analytically  !
 ! D8    D(6,1,7,8)            -77.3455         calculate D2E/DX2 analytically  !
 ! D9    D(9,1,7,8)           -179.4671         calculate D2E/DX2 analytically  !
 ! D10   D(2,1,9,10)          -133.7087         calculate D2E/DX2 analytically  !
 ! D11   D(6,1,9,10)           -16.6576         calculate D2E/DX2 analytically  !
 ! D12   D(7,1,9,10)           104.405          calculate D2E/DX2 analytically  !
 ! D13   D(5,4,8,7)            -92.0895         calculate D2E/DX2 analytically  !
 ! D14   D(1,6,13,10)           23.5448         calculate D2E/DX2 analytically  !
 ! D15   D(1,6,13,14)          -96.0348         calculate D2E/DX2 analytically  !
 ! D16   D(1,6,13,15)          145.151          calculate D2E/DX2 analytically  !
 ! D17   D(1,7,8,4)              4.4269         calculate D2E/DX2 analytically  !
 ! D18   D(1,9,10,11)          152.5779         calculate D2E/DX2 analytically  !
 ! D19   D(1,9,10,12)          -87.8883         calculate D2E/DX2 analytically  !
 ! D20   D(1,9,10,13)           31.407          calculate D2E/DX2 analytically  !
 ! D21   D(9,10,13,6)          -34.8414         calculate D2E/DX2 analytically  !
 ! D22   D(9,10,13,14)          84.8816         calculate D2E/DX2 analytically  !
 ! D23   D(9,10,13,15)        -155.2565         calculate D2E/DX2 analytically  !
 ! D24   D(11,10,13,6)        -155.3171         calculate D2E/DX2 analytically  !
 ! D25   D(11,10,13,14)        -35.5941         calculate D2E/DX2 analytically  !
 ! D26   D(11,10,13,15)         84.2678         calculate D2E/DX2 analytically  !
 ! D27   D(12,10,13,6)          84.9268         calculate D2E/DX2 analytically  !
 ! D28   D(12,10,13,14)       -155.3502         calculate D2E/DX2 analytically  !
 ! D29   D(12,10,13,15)        -35.4883         calculate D2E/DX2 analytically  !
 --------------------------------------------------------------------------------
 Trust Radius=3.00D-01 FncErr=1.00D-07 GrdErr=1.00D-06 EigMax=2.50D+02 EigMin=1.00D-04
 Number of steps in this run=     78 maximum allowed number of steps=    100.
 Search for a saddle point of order  1.
 GradGradGradGradGradGradGradGradGradGradGradGradGradGradGradGradGradGrad

                          Input orientation:                          
 ---------------------------------------------------------------------
 Center     Atomic      Atomic             Coordinates (Angstroms)
 Number     Number       Type             X           Y           Z
 ---------------------------------------------------------------------
      1         14           0        0.347326   -0.246294    0.015550
      2          8           0        0.937777   -0.996493   -1.344602
      3          1           0        0.283321   -1.620972   -1.652818
      4          8           0        2.473585    1.003749    0.024175
      5          1           0        2.980910    0.503956   -0.614687
      6          8           0       -0.418351    1.224148   -0.225498
      7          8           0        1.110883   -0.513225    1.420612
      8          1           0        1.927149    0.048044    1.180196
      9          8           0       -1.135908   -1.103241    0.156476
     10          6           0       -2.185032   -0.212816    0.391351
     11          1           0       -3.128922   -0.622590    0.013504
     12          1           0       -2.303615   -0.027393    1.469113
     13          6           0       -1.807589    1.088418   -0.325320
     14          1           0       -2.109191    1.036533   -1.382074
     15          1           0       -2.300387    1.957410    0.123576
 ---------------------------------------------------------------------
                    Distance matrix (angstroms):
                    1          2          3          4          5
     1  Si   0.000000
     2  O    1.661759   0.000000
     3  H    2.162704   0.955659   0.000000
     4  O    2.466507   2.869360   3.807719   0.000000
     5  H    2.809953   2.637900   3.587481   0.956722   0.000000
     6  O    1.675281   2.832441   3.259493   2.911049   3.496444
     7  O    1.621256   2.812458   3.370153   2.471478   2.945183
     8  H    1.984660   2.905946   3.676106   1.596355   2.130698
     9  O    1.718779   2.562187   2.357075   4.181549   4.486197
    10  C    2.560309   3.657816   3.500614   4.828826   5.311575
    11  H    3.496556   4.303754   3.926423   5.833796   6.244500
    12  H    3.031213   4.400315   4.356396   5.096346   5.705327
    13  C    2.557598   3.594833   3.670824   4.296250   4.832706
    14  H    3.103784   3.663142   3.586049   4.793793   5.175099
    15  H    3.446500   4.622423   4.757724   4.869308   5.527175
                    6          7          8          9         10
     6  O    0.000000
     7  O    2.840194   0.000000
     8  H    2.976670   1.019369   0.000000
     9  O    2.465265   2.644660   3.428670   0.000000
    10  C    2.359349   3.465931   4.195278   1.395953   0.000000
    11  H    3.288580   4.468541   5.232091   2.055133   1.096180
    12  H    2.827062   3.449229   4.241288   2.060098   1.100007
    13  C    1.399417   3.759125   4.158993   2.342360   1.532740
    14  H    2.057136   4.541550   4.882047   2.809457   2.170636
    15  H    2.049777   4.407165   4.757540   3.274855   2.189724
                   11         12         13         14         15
    11  H    0.000000
    12  H    1.776004   0.000000
    13  C    2.188212   2.170499   0.000000
    14  H    2.395867   3.049427   1.100175   0.000000
    15  H    2.712008   2.397900   1.095219   1.775261   0.000000
 Stoichiometry    C2H7O5Si(1-)
 Framework group  C1[X(C2H7O5Si)]
 Deg. of freedom    39
 Full point group                 C1      NOp   1
 Largest Abelian subgroup         C1      NOp   1
 Largest concise Abelian subgroup C1      NOp   1
                         Standard orientation:                         
 ---------------------------------------------------------------------
 Center     Atomic      Atomic             Coordinates (Angstroms)
 Number     Number       Type             X           Y           Z
 ---------------------------------------------------------------------
      1         14           0        0.347326   -0.246294    0.015550
      2          8           0        0.937777   -0.996493   -1.344602
      3          1           0        0.283321   -1.620972   -1.652818
      4          8           0        2.473585    1.003749    0.024175
      5          1           0        2.980910    0.503956   -0.614687
      6          8           0       -0.418351    1.224148   -0.225498
      7          8           0        1.110883   -0.513225    1.420612
      8          1           0        1.927149    0.048044    1.180196
      9          8           0       -1.135908   -1.103241    0.156476
     10          6           0       -2.185032   -0.212816    0.391351
     11          1           0       -3.128922   -0.622590    0.013504
     12          1           0       -2.303615   -0.027393    1.469113
     13          6           0       -1.807589    1.088418   -0.325320
     14          1           0       -2.109191    1.036533   -1.382074
     15          1           0       -2.300387    1.957410    0.123576
 ---------------------------------------------------------------------
 Rotational constants (GHZ):           2.8321920           1.3776552           1.2729023
 Standard basis: def2TZVPP (5D, 7F)
 There are   405 symmetry adapted cartesian basis functions of A   symmetry.
 There are   357 symmetry adapted basis functions of A   symmetry.
   357 basis functions,   545 primitive gaussians,   405 cartesian basis functions
    37 alpha electrons       37 beta electrons
       nuclear repulsion energy       531.1982554071 Hartrees.
 NAtoms=   15 NActive=   15 NUniq=   15 SFac= 1.00D+00 NAtFMM=   60 NAOKFM=F Big=F
 Integral buffers will be    131072 words long.
 Raffenetti 2 integral format.
 Two-electron integral symmetry is turned on.
 Nuclear repulsion after empirical dispersion term =      531.1918200409 Hartrees.
 One-electron integrals computed using PRISM.
   1 Symmetry operations used in ECPInt.
 ECPInt:  NShTT=    8911 NPrTT=   25186 LenC2=    8621 LenP2D=   19443.
 LDataN:  DoStor=T MaxTD1= 6 Len=  172
 NBasis=   357 RedAO= T EigKep=  3.17D-04  NBF=   357
 NBsUse=   357 1.00D-06 EigRej= -1.00D+00 NBFU=   357
 ExpMin= 7.01D-02 ExpMax= 4.48D+04 ExpMxC= 1.53D+03 IAcc=3 IRadAn=         5 AccDes= 0.00D+00
 Harris functional with IExCor= 4639 and IRadAn=       5 diagonalized for initial guess.
 HarFok:  IExCor= 4639 AccDes= 0.00D+00 IRadAn=         5 IDoV= 1 UseB2=F ITyADJ=14
 ICtDFT=  3500011 ScaDFX=  1.000000  1.000000  1.000000  1.000000
 FoFCou: FMM=F IPFlag=           0 FMFlag=      100000 FMFlg1=           0
         NFxFlg=           0 DoJE=T BraDBF=F KetDBF=T FulRan=T
         wScrn=  0.000000 ICntrl=       500 IOpCl=  0 I1Cent=   200000004 NGrid=           0
         NMat0=    1 NMatS0=      1 NMatT0=    0 NMatD0=    1 NMtDS0=    0 NMtDT0=    0
 Petite list used in FoFCou.
 Requested convergence on RMS density matrix=1.00D-08 within 128 cycles.
 Requested convergence on MAX density matrix=1.00D-06.
 Requested convergence on             energy=1.00D-06.
 No special actions if energy rises.
 Integral accuracy reduced to 1.0D-05 until final iterations.
 Initial convergence to 1.0D-05 achieved.  Increase integral accuracy.
 SCF Done:  E(RwB97XD) =  -746.314388326     A.U. after   14 cycles
            NFock= 14  Conv=0.99D-08     -V/T= 2.0034
 DoSCS=F DFT=T ScalE2(SS,OS)=  1.000000  1.000000
 Range of M.O.s used for correlation:     1   357
 NBasis=   357 NAE=    37 NBE=    37 NFC=     0 NFV=     0
 NROrb=    357 NOA=    37 NOB=    37 NVA=   320 NVB=   320

 **** Warning!!: The largest alpha MO coefficient is  0.12203245D+02

   1 Symmetry operations used in ECPInt.
 ECPInt:  NShTT=    8911 NPrTT=   25186 LenC2=    8621 LenP2D=   19443.
 LDataN:  DoStor=T MaxTD1= 7 Len=  274
 Symmetrizing basis deriv contribution to polar:
 IMax=3 JMax=2 DiffMx= 0.00D+00
 G2DrvN: will do    16 centers at a time, making    1 passes.
 Calling FoFCou, ICntrl=  3107 FMM=F I1Cent=   0 AccDes= 0.00D+00.
 End of G2Drv F.D. properties file   721 does not exist.
 End of G2Drv F.D. properties file   722 does not exist.
 End of G2Drv F.D. properties file   788 does not exist.
          IDoAtm=111111111111111
          Differentiating once with respect to electric field.
                with respect to dipole field.
          Differentiating once with respect to nuclear coordinates.
 CalDSu exits because no D1Ps are significant.
          There are    48 degrees of freedom in the 1st order CPHF.  IDoFFX=6 NUNeed=     3.
     45 vectors produced by pass  0 Test12= 2.47D-14 2.08D-09 XBig12= 2.65D+01 1.07D+00.
 AX will form    45 AO Fock derivatives at one time.
     45 vectors produced by pass  1 Test12= 2.47D-14 2.08D-09 XBig12= 2.61D+00 3.04D-01.
     45 vectors produced by pass  2 Test12= 2.47D-14 2.08D-09 XBig12= 5.62D-02 4.80D-02.
     45 vectors produced by pass  3 Test12= 2.47D-14 2.08D-09 XBig12= 7.49D-04 3.62D-03.
     45 vectors produced by pass  4 Test12= 2.47D-14 2.08D-09 XBig12= 8.48D-06 3.30D-04.
     45 vectors produced by pass  5 Test12= 2.47D-14 2.08D-09 XBig12= 7.34D-08 3.30D-05.
     45 vectors produced by pass  6 Test12= 2.47D-14 2.08D-09 XBig12= 5.14D-10 2.55D-06.
     17 vectors produced by pass  7 Test12= 2.47D-14 2.08D-09 XBig12= 3.45D-12 2.02D-07.
      3 vectors produced by pass  8 Test12= 2.47D-14 2.08D-09 XBig12= 2.17D-14 1.73D-08.
 InvSVY:  IOpt=1 It=  1 EMax= 7.99D-15
 Solved reduced A of dimension   335 with    48 vectors.
 Isotropic polarizability for W=    0.000000       69.90 Bohr**3.
 End of Minotr F.D. properties file   721 does not exist.
 End of Minotr F.D. properties file   722 does not exist.
 End of Minotr F.D. properties file   788 does not exist.

 **********************************************************************

            Population analysis using the SCF Density.

 **********************************************************************

 Orbital symmetries:
       Occupied  (A) (A) (A) (A) (A) (A) (A) (A) (A) (A) (A) (A)
                 (A) (A) (A) (A) (A) (A) (A) (A) (A) (A) (A) (A)
                 (A) (A) (A) (A) (A) (A) (A) (A) (A) (A) (A) (A)
                 (A)
       Virtual   (A) (A) (A) (A) (A) (A) (A) (A) (A) (A) (A) (A)
                 (A) (A) (A) (A) (A) (A) (A) (A) (A) (A) (A) (A)
                 (A) (A) (A) (A) (A) (A) (A) (A) (A) (A) (A) (A)
                 (A) (A) (A) (A) (A) (A) (A) (A) (A) (A) (A) (A)
                 (A) (A) (A) (A) (A) (A) (A) (A) (A) (A) (A) (A)
                 (A) (A) (A) (A) (A) (A) (A) (A) (A) (A) (A) (A)
                 (A) (A) (A) (A) (A) (A) (A) (A) (A) (A) (A) (A)
                 (A) (A) (A) (A) (A) (A) (A) (A) (A) (A) (A) (A)
                 (A) (A) (A) (A) (A) (A) (A) (A) (A) (A) (A) (A)
                 (A) (A) (A) (A) (A) (A) (A) (A) (A) (A) (A) (A)
                 (A) (A) (A) (A) (A) (A) (A) (A) (A) (A) (A) (A)
                 (A) (A) (A) (A) (A) (A) (A) (A) (A) (A) (A) (A)
                 (A) (A) (A) (A) (A) (A) (A) (A) (A) (A) (A) (A)
                 (A) (A) (A) (A) (A) (A) (A) (A) (A) (A) (A) (A)
                 (A) (A) (A) (A) (A) (A) (A) (A) (A) (A) (A) (A)
                 (A) (A) (A) (A) (A) (A) (A) (A) (A) (A) (A) (A)
                 (A) (A) (A) (A) (A) (A) (A) (A) (A) (A) (A) (A)
                 (A) (A) (A) (A) (A) (A) (A) (A) (A) (A) (A) (A)
                 (A) (A) (A) (A) (A) (A) (A) (A) (A) (A) (A) (A)
                 (A) (A) (A) (A) (A) (A) (A) (A) (A) (A) (A) (A)
                 (A) (A) (A) (A) (A) (A) (A) (A) (A) (A) (A) (A)
                 (A) (A) (A) (A) (A) (A) (A) (A) (A) (A) (A) (A)
                 (A) (A) (A) (A) (A) (A) (A) (A) (A) (A) (A) (A)
                 (A) (A) (A) (A) (A) (A) (A) (A) (A) (A) (A) (A)
                 (A) (A) (A) (A) (A) (A) (A) (A) (A) (A) (A) (A)
                 (A) (A) (A) (A) (A) (A) (A) (A) (A) (A) (A) (A)
                 (A) (A) (A) (A) (A) (A) (A) (A)
 The electronic state is 1-A.
 Alpha  occ. eigenvalues --  -66.13845 -19.08379 -19.08276 -19.08101 -19.03933
 Alpha  occ. eigenvalues --  -18.96616 -10.19603 -10.19581  -5.25250  -3.59924
 Alpha  occ. eigenvalues --   -3.59734  -3.59590  -0.99360  -0.94069  -0.92906
 Alpha  occ. eigenvalues --   -0.89749  -0.78651  -0.68562  -0.56618  -0.47474
 Alpha  occ. eigenvalues --   -0.44945  -0.43527  -0.41964  -0.38246  -0.36711
 Alpha  occ. eigenvalues --   -0.35361  -0.30774  -0.29894  -0.27156  -0.25995
 Alpha  occ. eigenvalues --   -0.25374  -0.24657  -0.23330  -0.21411  -0.19736
 Alpha  occ. eigenvalues --   -0.13580  -0.12679
 Alpha virt. eigenvalues --    0.23815   0.25373   0.27415   0.28607   0.30615
 Alpha virt. eigenvalues --    0.31977   0.33151   0.35039   0.35886   0.38271
 Alpha virt. eigenvalues --    0.39533   0.40612   0.41569   0.43123   0.44761
 Alpha virt. eigenvalues --    0.45603   0.47137   0.50043   0.51684   0.53629
 Alpha virt. eigenvalues --    0.54233   0.56349   0.57476   0.59094   0.59738
 Alpha virt. eigenvalues --    0.60125   0.62211   0.62681   0.63529   0.64923
 Alpha virt. eigenvalues --    0.66376   0.66961   0.68414   0.69183   0.70132
 Alpha virt. eigenvalues --    0.71827   0.72433   0.74540   0.75494   0.77901
 Alpha virt. eigenvalues --    0.79268   0.80624   0.81389   0.82924   0.83489
 Alpha virt. eigenvalues --    0.87215   0.87599   0.90311   0.91552   0.92535
 Alpha virt. eigenvalues --    0.95404   0.97006   0.97334   0.99689   1.00238
 Alpha virt. eigenvalues --    1.01807   1.03297   1.04361   1.05869   1.07569
 Alpha virt. eigenvalues --    1.09806   1.10409   1.13085   1.15325   1.16159
 Alpha virt. eigenvalues --    1.17298   1.20162   1.21137   1.24520   1.24724
 Alpha virt. eigenvalues --    1.25973   1.26769   1.29913   1.31756   1.31825
 Alpha virt. eigenvalues --    1.32947   1.36396   1.37384   1.39618   1.40290
 Alpha virt. eigenvalues --    1.41252   1.42583   1.45020   1.46420   1.47594
 Alpha virt. eigenvalues --    1.51329   1.53958   1.54992   1.57327   1.57781
 Alpha virt. eigenvalues --    1.59528   1.62250   1.62741   1.66794   1.67391
 Alpha virt. eigenvalues --    1.71623   1.72798   1.74622   1.76151   1.76828
 Alpha virt. eigenvalues --    1.79678   1.84520   1.85315   1.92538   1.96221
 Alpha virt. eigenvalues --    1.97845   2.00077   2.03190   2.07370   2.08635
 Alpha virt. eigenvalues --    2.09810   2.11189   2.14270   2.15244   2.18387
 Alpha virt. eigenvalues --    2.20096   2.22381   2.23853   2.25068   2.27451
 Alpha virt. eigenvalues --    2.28806   2.31272   2.32619   2.35884   2.37316
 Alpha virt. eigenvalues --    2.39121   2.44432   2.45708   2.46703   2.49263
 Alpha virt. eigenvalues --    2.53333   2.54335   2.60443   2.61892   2.63497
 Alpha virt. eigenvalues --    2.64535   2.75178   2.77603   2.80152   2.81469
 Alpha virt. eigenvalues --    2.83116   2.85413   2.87381   2.95883   2.97528
 Alpha virt. eigenvalues --    2.98968   3.02173   3.04132   3.05903   3.07417
 Alpha virt. eigenvalues --    3.13228   3.13910   3.14347   3.17421   3.18543
 Alpha virt. eigenvalues --    3.19815   3.21530   3.25106   3.26113   3.28293
 Alpha virt. eigenvalues --    3.31095   3.33026   3.33732   3.36663   3.38116
 Alpha virt. eigenvalues --    3.41902   3.42474   3.48079   3.49117   3.51434
 Alpha virt. eigenvalues --    3.52921   3.53822   3.56461   3.58888   3.61523
 Alpha virt. eigenvalues --    3.61809   3.64029   3.65381   3.69122   3.70775
 Alpha virt. eigenvalues --    3.72901   3.75280   3.75843   3.78404   3.81356
 Alpha virt. eigenvalues --    3.84829   3.85791   3.89103   3.90364   3.91113
 Alpha virt. eigenvalues --    3.93315   3.94202   3.96706   4.00701   4.02713
 Alpha virt. eigenvalues --    4.03358   4.06827   4.07771   4.13658   4.15392
 Alpha virt. eigenvalues --    4.15861   4.17540   4.19514   4.21913   4.24721
 Alpha virt. eigenvalues --    4.27313   4.32159   4.34119   4.34844   4.37138
 Alpha virt. eigenvalues --    4.39266   4.39571   4.40166   4.42497   4.46485
 Alpha virt. eigenvalues --    4.47655   4.49395   4.52880   4.54949   4.58647
 Alpha virt. eigenvalues --    4.59308   4.72077   4.75811   4.77367   4.78346
 Alpha virt. eigenvalues --    4.80288   4.84595   4.88771   4.93934   4.97486
 Alpha virt. eigenvalues --    4.99419   5.02519   5.06742   5.09097   5.12097
 Alpha virt. eigenvalues --    5.14964   5.17948   5.19491   5.21629   5.25308
 Alpha virt. eigenvalues --    5.33057   5.33630   5.35620   5.37956   5.47180
 Alpha virt. eigenvalues --    5.49326   5.50149   5.51642   5.55033   5.59594
 Alpha virt. eigenvalues --    5.61562   5.62719   5.65613   5.66787   5.68093
 Alpha virt. eigenvalues --    5.69353   5.70844   5.74806   5.75425   5.77473
 Alpha virt. eigenvalues --    5.81559   5.83301   5.84345   5.84894   5.89841
 Alpha virt. eigenvalues --    5.91741   5.95940   6.03189   6.11695   6.16396
 Alpha virt. eigenvalues --    6.24960   6.28525   6.34942   6.36970   6.44685
 Alpha virt. eigenvalues --    6.56411   6.69352   6.73736   6.76219   6.80844
 Alpha virt. eigenvalues --    6.81071   6.84026   6.85657   6.87604   6.88330
 Alpha virt. eigenvalues --    6.89119   6.91096   6.92769   6.94123   6.96280
 Alpha virt. eigenvalues --    6.97045   7.00587   7.03693   7.05260   7.08474
 Alpha virt. eigenvalues --    7.12952   7.18665   7.22702   7.24516   7.28968
 Alpha virt. eigenvalues --    7.31556   7.37099   7.38610   7.47408   7.52523
 Alpha virt. eigenvalues --    7.55933   7.59700   7.68664   7.71672   7.82395
 Alpha virt. eigenvalues --    7.91361   7.96843  12.57599  23.47960  23.61641
 Alpha virt. eigenvalues --   43.91362  44.06584  44.10616  44.31416  44.40566
          Condensed to atoms (all electrons):
               1          2          3          4          5          6
     1  Si  11.547712   0.414249  -0.019928   0.176729  -0.024142   0.379363
     2  O    0.414249   7.812244   0.295826  -0.020467   0.002765  -0.020966
     3  H   -0.019928   0.295826   0.569976   0.003662  -0.000896  -0.000005
     4  O    0.176729  -0.020467   0.003662   8.350497   0.283741  -0.017596
     5  H   -0.024142   0.002765  -0.000896   0.283741   0.612102   0.001152
     6  O    0.379363  -0.020966  -0.000005  -0.017596   0.001152   7.904697
     7  O    0.481307  -0.023288  -0.000831  -0.131279   0.010593  -0.021913
     8  H   -0.061244   0.001809  -0.000893   0.123395  -0.010550   0.004280
     9  O    0.379717  -0.043499   0.008852   0.000574  -0.000005  -0.022839
    10  C   -0.034753  -0.001864   0.001735   0.001067  -0.000167  -0.070082
    11  H    0.000170   0.000041  -0.000498   0.000003  -0.000001   0.005043
    12  H   -0.003572  -0.000491   0.000384   0.000070   0.000001   0.005433
    13  C   -0.059664  -0.002090  -0.001554  -0.001138   0.000002   0.326182
    14  H   -0.006747   0.000994   0.001113   0.000127   0.000008  -0.054728
    15  H    0.003630  -0.000272  -0.000059  -0.000028  -0.000007  -0.043281
               7          8          9         10         11         12
     1  Si   0.481307  -0.061244   0.379717  -0.034753   0.000170  -0.003572
     2  O   -0.023288   0.001809  -0.043499  -0.001864   0.000041  -0.000491
     3  H   -0.000831  -0.000893   0.008852   0.001735  -0.000498   0.000384
     4  O   -0.131279   0.123395   0.000574   0.001067   0.000003   0.000070
     5  H    0.010593  -0.010550  -0.000005  -0.000167  -0.000001   0.000001
     6  O   -0.021913   0.004280  -0.022839  -0.070082   0.005043   0.005433
     7  O    7.960640   0.268814  -0.024629   0.001001  -0.000319   0.001433
     8  H    0.268814   0.431635   0.000927  -0.001331  -0.000006   0.000059
     9  O   -0.024629   0.000927   8.049434   0.320575  -0.045460  -0.046271
    10  C    0.001001  -0.001331   0.320575   4.706661   0.368215   0.415443
    11  H   -0.000319  -0.000006  -0.045460   0.368215   0.746943  -0.073207
    12  H    0.001433   0.000059  -0.046271   0.415443  -0.073207   0.726685
    13  C   -0.004533   0.001756  -0.088488   0.297059  -0.013463  -0.059439
    14  H   -0.000258  -0.000067   0.010372  -0.053662  -0.017385   0.016017
    15  H    0.000048   0.000070   0.006432  -0.018238   0.008675  -0.013360
              13         14         15
     1  Si  -0.059664  -0.006747   0.003630
     2  O   -0.002090   0.000994  -0.000272
     3  H   -0.001554   0.001113  -0.000059
     4  O   -0.001138   0.000127  -0.000028
     5  H    0.000002   0.000008  -0.000007
     6  O    0.326182  -0.054728  -0.043281
     7  O   -0.004533  -0.000258   0.000048
     8  H    0.001756  -0.000067   0.000070
     9  O   -0.088488   0.010372   0.006432
    10  C    0.297059  -0.053662  -0.018238
    11  H   -0.013463  -0.017385   0.008675
    12  H   -0.059439   0.016017  -0.013360
    13  C    4.747551   0.405803   0.377670
    14  H    0.405803   0.749203  -0.072214
    15  H    0.377670  -0.072214   0.722580
 Mulliken charges:
               1
     1  Si   0.827175
     2  O   -0.414989
     3  H    0.143115
     4  O   -0.769356
     5  H    0.125403
     6  O   -0.374741
     7  O   -0.516787
     8  H    0.241345
     9  O   -0.505693
    10  C    0.068341
    11  H    0.021250
    12  H    0.030814
    13  C    0.074346
    14  H    0.021424
    15  H    0.028354
 Sum of Mulliken charges =  -1.00000
 Mulliken charges with hydrogens summed into heavy atoms:
               1
     1  Si   0.827175
     2  O   -0.271875
     4  O   -0.643953
     6  O   -0.374741
     7  O   -0.275441
     9  O   -0.505693
    10  C    0.120405
    13  C    0.124124
 APT charges:
               1
     1  Si   2.290328
     2  O   -0.863340
     3  H    0.242422
     4  O   -0.960196
     5  H    0.126738
     6  O   -0.946304
     7  O   -1.016050
     8  H    0.460634
     9  O   -0.954828
    10  C    0.506293
    11  H   -0.094565
    12  H   -0.101116
    13  C    0.512500
    14  H   -0.113162
    15  H   -0.089354
 Sum of APT charges =  -1.00000
 APT charges with hydrogens summed into heavy atoms:
               1
     1  Si   2.290328
     2  O   -0.620918
     4  O   -0.833459
     6  O   -0.946304
     7  O   -0.555416
     9  O   -0.954828
    10  C    0.310612
    13  C    0.309985
 Electronic spatial extent (au):  <R**2>=           1084.1150
 Charge=             -1.0000 electrons
 Dipole moment (field-independent basis, Debye):
    X=             -6.7650    Y=             -1.9088    Z=             -1.8130  Tot=              7.2592
 Quadrupole moment (field-independent basis, Debye-Ang):
   XX=            -70.7330   YY=            -65.2916   ZZ=            -60.6365
   XY=             -8.0096   XZ=             -1.2495   YZ=              3.4908
 Traceless Quadrupole moment (field-independent basis, Debye-Ang):
   XX=             -5.1793   YY=              0.2621   ZZ=              4.9172
   XY=             -8.0096   XZ=             -1.2495   YZ=              3.4908
 Octapole moment (field-independent basis, Debye-Ang**2):
  XXX=            -24.6949  YYY=            -12.9906  ZZZ=             -8.4145  XYY=             -9.2602
  XXY=            -15.8460  XXZ=             -4.8440  XZZ=             -4.9101  YZZ=              0.4962
  YYZ=             -4.7397  XYZ=             -2.0357
 Hexadecapole moment (field-independent basis, Debye-Ang**3):
 XXXX=           -916.5989 YYYY=           -320.9140 ZZZZ=           -251.9130 XXXY=            -52.3982
 XXXZ=            -17.3473 YYYX=            -19.2514 YYYZ=             16.1182 ZZZX=             -0.5918
 ZZZY=             13.9828 XXYY=           -231.4758 XXZZ=           -183.7103 YYZZ=            -88.1793
 XXYZ=             -2.3463 YYXZ=              0.0738 ZZXY=              8.4461
 N-N= 5.311918200409D+02 E-N=-2.843271595560D+03  KE= 7.437740439147D+02
  Exact polarizability:      82.240       0.837      63.719      -1.148       0.126      63.735
 Approx polarizability:      76.793       1.395      68.535      -0.995       1.127      68.490
   1 Symmetry operations used in ECPInt.
 ECPInt:  NShTT=    8911 NPrTT=   25186 LenC2=    8621 LenP2D=   19443.
 LDataN:  DoStor=T MaxTD1= 8 Len=  415
 Calling FoFJK, ICntrl=    100127 FMM=F ISym2X=0 I1Cent= 0 IOpClX= 0 NMat=1 NMatS=1 NMatT=0.
 ***** Axes restored to original set *****
 -------------------------------------------------------------------
 Center     Atomic                   Forces (Hartrees/Bohr)
 Number     Number              X              Y              Z
 -------------------------------------------------------------------
      1       14           0.015247103    0.009044468    0.000014112
      2        8           0.000017135   -0.000029917    0.000018423
      3        1          -0.000018831    0.000001373   -0.000000769
      4        8          -0.015263858   -0.008944199   -0.000038790
      5        1          -0.000010955   -0.000017978   -0.000006947
      6        8           0.000029782   -0.000012356    0.000020578
      7        8           0.000018465   -0.000048312    0.000014355
      8        1           0.000001555    0.000032474   -0.000000775
      9        8           0.000001282   -0.000010533   -0.000006335
     10        6           0.000013186    0.000000606   -0.000019168
     11        1          -0.000004328   -0.000001874    0.000007995
     12        1           0.000003594    0.000009997    0.000001410
     13        6          -0.000028524   -0.000009070    0.000005588
     14        1          -0.000004011   -0.000014886   -0.000000853
     15        1          -0.000001596    0.000000208   -0.000008823
 -------------------------------------------------------------------
 Cartesian Forces:  Max     0.015263858 RMS     0.003733548
 FormGI is forming the generalized inverse of G from B-inverse, IUseBI=4.

 GradGradGradGradGradGradGradGradGradGradGradGradGradGradGradGradGradGrad
 Berny optimization.
 Internal  Forces:  Max     0.051261408 RMS     0.008490225
 Search for a saddle point.
 Step number   1 out of a maximum of   78
 All quantities printed in internal units (Hartrees-Bohrs-Radians)
 Swapping is turned off.
 Second derivative matrix not updated -- analytic derivatives used.
 ITU=  0
     Eigenvalues ---   -0.17896   0.00247   0.00359   0.00435   0.01421
     Eigenvalues ---    0.02148   0.02228   0.03468   0.04273   0.04563
     Eigenvalues ---    0.05014   0.05468   0.06958   0.08360   0.08541
     Eigenvalues ---    0.09380   0.09828   0.10271   0.10475   0.11532
     Eigenvalues ---    0.13328   0.14688   0.16631   0.19147   0.20150
     Eigenvalues ---    0.23236   0.26365   0.27679   0.29977   0.30387
     Eigenvalues ---    0.30857   0.32005   0.32306   0.34471   0.35175
     Eigenvalues ---    0.40292   0.43936   0.55058   0.56300
 Eigenvectors required to have negative eigenvalues:
                          A11       A10       R9        D2        D7
   1                    0.68222   0.50613   0.18572   0.17873  -0.16966
                          D5        R3        D8        D4        A6
   1                   -0.16554  -0.16067   0.14220   0.13496   0.12987
 RFO step:  Lambda0=1.620834519D-02 Lambda=-1.30673553D-02.
 Linear search not attempted -- option 19 set.
 Maximum step size (   0.300) exceeded in Quadratic search.
    -- Step size scaled by   0.575
 Iteration  1 RMS(Cart)=  0.03580479 RMS(Int)=  0.00689571
 Iteration  2 RMS(Cart)=  0.00938677 RMS(Int)=  0.00022777
 Iteration  3 RMS(Cart)=  0.00004925 RMS(Int)=  0.00022719
 Iteration  4 RMS(Cart)=  0.00000000 RMS(Int)=  0.00022719
 Variable       Old X    -DE/DX   Delta X   Delta X   Delta X     New X
                                 (Linear)    (Quad)   (Total)
    R1        3.14027  -0.00000   0.00000  -0.00261  -0.00261   3.13766
    R2        3.16582  -0.00002   0.00000  -0.00186  -0.00189   3.16393
    R3        3.06373  -0.00573   0.00000  -0.02724  -0.02724   3.03649
    R4        3.24802   0.00000   0.00000  -0.01072  -0.01074   3.23728
    R5        1.80593   0.00001   0.00000  -0.00048  -0.00048   1.80545
    R6        1.80794   0.00001   0.00000  -0.00001  -0.00001   1.80793
    R7        3.01667  -0.01056   0.00000  -0.25139  -0.25139   2.76529
    R8        2.64452   0.00002   0.00000   0.00059   0.00060   2.64512
    R9        1.92633  -0.01714   0.00000   0.05567   0.05567   1.98200
   R10        2.63797  -0.00000   0.00000   0.00302   0.00303   2.64100
   R11        2.07148   0.00000   0.00000  -0.00051  -0.00051   2.07097
   R12        2.07871   0.00000   0.00000  -0.00074  -0.00074   2.07797
   R13        2.89646  -0.00002   0.00000   0.00090   0.00095   2.89741
   R14        2.07903   0.00000   0.00000  -0.00006  -0.00006   2.07897
   R15        2.06966  -0.00000   0.00000  -0.00027  -0.00027   2.06940
    A1        2.02737   0.00002   0.00000  -0.02239  -0.02306   2.00431
    A2        2.05746  -0.00002   0.00000  -0.00926  -0.01042   2.04704
    A3        1.72000  -0.00001   0.00000   0.01919   0.01927   1.73927
    A4        2.07655   0.00001   0.00000  -0.00517  -0.00620   2.07034
    A5        1.62583   0.00001   0.00000   0.00756   0.00765   1.63348
    A6        1.82686  -0.00001   0.00000   0.04266   0.04267   1.86953
    A7        1.89194  -0.00002   0.00000   0.00540   0.00540   1.89734
    A8        1.93086  -0.00003   0.00000  -0.02752  -0.02752   1.90334
    A9        1.95935  -0.00000   0.00000  -0.00563  -0.00568   1.95367
   A10        1.65297  -0.05126   0.00000  -0.03933  -0.03933   1.61364
   A11        2.45677  -0.04281   0.00000   0.13219   0.13219   2.58896
   A12        1.92232  -0.00001   0.00000  -0.00393  -0.00399   1.91833
   A13        1.92911  -0.00000   0.00000  -0.00133  -0.00134   1.92777
   A14        1.93199   0.00000   0.00000  -0.00122  -0.00121   1.93078
   A15        1.85227   0.00000   0.00000   0.00123   0.00121   1.85349
   A16        1.88379   0.00000   0.00000   0.00081   0.00081   1.88461
   A17        1.94790   0.00000   0.00000   0.00007   0.00006   1.94796
   A18        1.91937  -0.00001   0.00000   0.00040   0.00042   1.91979
   A19        1.86863  -0.00000   0.00000   0.00074   0.00076   1.86939
   A20        1.92329   0.00001   0.00000   0.00021   0.00021   1.92350
   A21        1.91823  -0.00000   0.00000  -0.00024  -0.00025   1.91798
   A22        1.91939  -0.00001   0.00000  -0.00029  -0.00032   1.91907
   A23        1.95105   0.00001   0.00000  -0.00071  -0.00070   1.95035
   A24        1.88364   0.00000   0.00000   0.00029   0.00029   1.88392
    D1       -1.65896   0.00001   0.00000  -0.01690  -0.01648  -1.67545
    D2        1.99712  -0.00001   0.00000   0.05613   0.05581   2.05293
    D3        0.04806   0.00002   0.00000  -0.00331  -0.00341   0.04465
    D4        1.67153  -0.00001   0.00000   0.02179   0.02155   1.69308
    D5       -1.99043   0.00001   0.00000  -0.05341  -0.05316  -2.04359
    D6       -0.09341   0.00000   0.00000  -0.00023  -0.00017  -0.09358
    D7        1.26240   0.00004   0.00000  -0.03965  -0.03959   1.22282
    D8       -1.34993   0.00002   0.00000   0.04068   0.04060  -1.30933
    D9       -3.13229   0.00001   0.00000   0.00699   0.00700  -3.12529
   D10       -2.33366  -0.00001   0.00000   0.01968   0.02008  -2.31357
   D11       -0.29073   0.00000   0.00000   0.00097   0.00089  -0.28984
   D12        1.82221   0.00001   0.00000   0.00754   0.00740   1.82961
   D13       -1.60726   0.00003   0.00000  -0.00738  -0.00738  -1.61465
   D14        0.41094   0.00000   0.00000   0.00007   0.00003   0.41096
   D15       -1.67612   0.00001   0.00000  -0.00014  -0.00017  -1.67629
   D16        2.53336   0.00001   0.00000  -0.00048  -0.00050   2.53286
   D17        0.07726  -0.00167   0.00000   0.00953   0.00953   0.08679
   D18        2.66299   0.00001   0.00000  -0.00088  -0.00086   2.66212
   D19       -1.53394   0.00001   0.00000  -0.00151  -0.00149  -1.53543
   D20        0.54816   0.00000   0.00000  -0.00097  -0.00092   0.54724
   D21       -0.60810  -0.00000   0.00000  -0.00093  -0.00095  -0.60905
   D22        1.48146  -0.00000   0.00000  -0.00040  -0.00042   1.48104
   D23       -2.70974  -0.00000   0.00000  -0.00070  -0.00072  -2.71046
   D24       -2.71080  -0.00001   0.00000  -0.00012  -0.00012  -2.71092
   D25       -0.62123  -0.00000   0.00000   0.00041   0.00041  -0.62082
   D26        1.47075  -0.00000   0.00000   0.00011   0.00011   1.47086
   D27        1.48225  -0.00000   0.00000  -0.00145  -0.00146   1.48080
   D28       -2.71137   0.00000   0.00000  -0.00092  -0.00092  -2.71229
   D29       -0.61939  -0.00000   0.00000  -0.00122  -0.00122  -0.62061
         Item               Value     Threshold  Converged?
 Maximum Force            0.051261     0.000450     NO 
 RMS     Force            0.008490     0.000300     NO 
 Maximum Displacement     0.192233     0.001800     NO 
 RMS     Displacement     0.036421     0.001200     NO 
 Predicted change in Energy= 1.030519D-03
 GradGradGradGradGradGradGradGradGradGradGradGradGradGradGradGradGradGrad

                          Input orientation:                          
 ---------------------------------------------------------------------
 Center     Atomic      Atomic             Coordinates (Angstroms)
 Number     Number       Type             X           Y           Z
 ---------------------------------------------------------------------
      1         14           0        0.327510   -0.265351    0.029051
      2          8           0        0.930622   -0.982064   -1.341875
      3          1           0        0.286644   -1.607131   -1.669568
      4          8           0        2.498267    0.992178    0.062850
      5          1           0        3.011610    0.475320   -0.557347
      6          8           0       -0.421094    1.211317   -0.220476
      7          8           0        1.136416   -0.496668    1.398029
      8          1           0        1.937234    0.100503    1.078471
      9          8           0       -1.153817   -1.114318    0.169106
     10          6           0       -2.198516   -0.214359    0.396788
     11          1           0       -3.143168   -0.620277    0.017466
     12          1           0       -2.318551   -0.024503    1.473215
     13          6           0       -1.810982    1.082078   -0.324253
     14          1           0       -2.109657    1.027296   -1.381660
     15          1           0       -2.300564    1.955211    0.119757
 ---------------------------------------------------------------------
                    Distance matrix (angstroms):
                    1          2          3          4          5
     1  Si   0.000000
     2  O    1.660380   0.000000
     3  H    2.165030   0.955405   0.000000
     4  O    2.508926   2.885896   3.827396   0.000000
     5  H    2.845497   2.658941   3.605424   0.956717   0.000000
     6  O    1.674282   2.809910   3.247216   2.941253   3.526845
     7  O    1.606840   2.790167   3.371260   2.419505   2.878300
     8  H    1.956103   2.836070   3.632104   1.463328   1.992655
     9  O    1.713094   2.577876   2.387157   4.217385   4.517241
    10  C    2.553162   3.661124   3.519327   4.860763   5.341484
    11  H    3.488798   4.309810   3.947604   5.867526   6.277901
    12  H    3.024112   4.404405   4.378224   5.120987   5.725699
    13  C    2.552163   3.579473   3.666299   4.327535   4.866198
    14  H    3.098520   3.644504   3.572864   4.829163   5.216469
    15  H    3.441786   4.604836   4.752432   4.894839   5.555874
                    6          7          8          9         10
     6  O    0.000000
     7  O    2.821809   0.000000
     8  H    2.912538   1.048828   0.000000
     9  O    2.469258   2.671499   3.443447   0.000000
    10  C    2.360677   3.493415   4.203362   1.397555   0.000000
    11  H    3.289534   4.498451   5.239822   2.055380   1.095911
    12  H    2.827752   3.487891   4.275880   2.060340   1.099613
    13  C    1.399735   3.761096   4.120709   2.345085   1.533243
    14  H    2.057537   4.537193   4.825817   2.811586   2.170825
    15  H    2.049766   4.411180   4.724193   3.277113   2.189565
                   11         12         13         14         15
    11  H    0.000000
    12  H    1.775991   0.000000
    13  C    2.188493   2.170953   0.000000
    14  H    2.395870   3.049627   1.100144   0.000000
    15  H    2.711749   2.398215   1.095078   1.775309   0.000000
 Stoichiometry    C2H7O5Si(1-)
 Framework group  C1[X(C2H7O5Si)]
 Deg. of freedom    39
 Full point group                 C1      NOp   1
 Largest Abelian subgroup         C1      NOp   1
 Largest concise Abelian subgroup C1      NOp   1
                         Standard orientation:                         
 ---------------------------------------------------------------------
 Center     Atomic      Atomic             Coordinates (Angstroms)
 Number     Number       Type             X           Y           Z
 ---------------------------------------------------------------------
      1         14           0        0.328830   -0.261990    0.028141
      2          8           0        0.920872   -1.019264   -1.325700
      3          1           0        0.271957   -1.649717   -1.632682
      4          8           0        2.506117    0.984597    0.015917
      5          1           0        3.013464    0.448204   -0.592516
      6          8           0       -0.413577    1.211166   -0.257980
      7          8           0        1.143926   -0.459831    1.398692
      8          1           0        1.946039    0.124126    1.058620
      9          8           0       -1.156026   -1.099010    0.199285
     10          6           0       -2.194881   -0.187670    0.407610
     11          1           0       -3.143623   -0.598903    0.044570
     12          1           0       -2.308133    0.032327    1.479022
     13          6           0       -1.804645    1.086410   -0.350854
     14          1           0       -2.109301    1.004153   -1.404768
     15          1           0       -2.287367    1.973971    0.071534
 ---------------------------------------------------------------------
 Rotational constants (GHZ):           2.8724940           1.3661281           1.2632340
 Standard basis: def2TZVPP (5D, 7F)
 There are   405 symmetry adapted cartesian basis functions of A   symmetry.
 There are   357 symmetry adapted basis functions of A   symmetry.
   357 basis functions,   545 primitive gaussians,   405 cartesian basis functions
    37 alpha electrons       37 beta electrons
       nuclear repulsion energy       531.4647258690 Hartrees.
 NAtoms=   15 NActive=   15 NUniq=   15 SFac= 1.00D+00 NAtFMM=   60 NAOKFM=F Big=F
 Integral buffers will be    131072 words long.
 Raffenetti 2 integral format.
 Two-electron integral symmetry is turned on.
 Nuclear repulsion after empirical dispersion term =      531.4583105418 Hartrees.
 One-electron integrals computed using PRISM.
   1 Symmetry operations used in ECPInt.
 ECPInt:  NShTT=    8911 NPrTT=   25186 LenC2=    8617 LenP2D=   19429.
 LDataN:  DoStor=T MaxTD1= 6 Len=  172
 NBasis=   357 RedAO= T EigKep=  3.14D-04  NBF=   357
 NBsUse=   357 1.00D-06 EigRej= -1.00D+00 NBFU=   357
 Initial guess from the checkpoint file:  "ScanTS_attempt_PbiL_QbiL_collapse.chk"
 B after Tr=    -0.000000   -0.000000   -0.000000
         Rot=    0.999912    0.012742   -0.002413    0.002959 Ang=   1.52 deg.
 ExpMin= 7.01D-02 ExpMax= 4.48D+04 ExpMxC= 1.53D+03 IAcc=3 IRadAn=         5 AccDes= 0.00D+00
 Harris functional with IExCor= 4639 and IRadAn=       5 diagonalized for initial guess.
 HarFok:  IExCor= 4639 AccDes= 0.00D+00 IRadAn=         5 IDoV= 1 UseB2=F ITyADJ=14
 ICtDFT=  3500011 ScaDFX=  1.000000  1.000000  1.000000  1.000000
 FoFCou: FMM=F IPFlag=           0 FMFlag=      100000 FMFlg1=           0
         NFxFlg=           0 DoJE=T BraDBF=F KetDBF=T FulRan=T
         wScrn=  0.000000 ICntrl=       500 IOpCl=  0 I1Cent=   200000004 NGrid=           0
         NMat0=    1 NMatS0=      1 NMatT0=    0 NMatD0=    1 NMtDS0=    0 NMtDT0=    0
 Petite list used in FoFCou.
 Requested convergence on RMS density matrix=1.00D-08 within 128 cycles.
 Requested convergence on MAX density matrix=1.00D-06.
 Requested convergence on             energy=1.00D-06.
 No special actions if energy rises.
 Integral accuracy reduced to 1.0D-05 until final iterations.
 Initial convergence to 1.0D-05 achieved.  Increase integral accuracy.
 SCF Done:  E(RwB97XD) =  -746.313201013     A.U. after   12 cycles
            NFock= 12  Conv=0.56D-08     -V/T= 2.0033
 DoSCS=F DFT=T ScalE2(SS,OS)=  1.000000  1.000000
 Range of M.O.s used for correlation:     1   357
 NBasis=   357 NAE=    37 NBE=    37 NFC=     0 NFV=     0
 NROrb=    357 NOA=    37 NOB=    37 NVA=   320 NVB=   320

 **** Warning!!: The largest alpha MO coefficient is  0.10613914D+02

   1 Symmetry operations used in ECPInt.
 ECPInt:  NShTT=    8911 NPrTT=   25186 LenC2=    8617 LenP2D=   19429.
 LDataN:  DoStor=T MaxTD1= 7 Len=  274
 Symmetrizing basis deriv contribution to polar:
 IMax=3 JMax=2 DiffMx= 0.00D+00
 G2DrvN: will do    16 centers at a time, making    1 passes.
 Calling FoFCou, ICntrl=  3107 FMM=F I1Cent=   0 AccDes= 0.00D+00.
 End of G2Drv F.D. properties file   721 does not exist.
 End of G2Drv F.D. properties file   722 does not exist.
 End of G2Drv F.D. properties file   788 does not exist.
          IDoAtm=111111111111111
          Differentiating once with respect to electric field.
                with respect to dipole field.
          Differentiating once with respect to nuclear coordinates.
 CalDSu exits because no D1Ps are significant.
          There are    48 degrees of freedom in the 1st order CPHF.  IDoFFX=6 NUNeed=     3.
     45 vectors produced by pass  0 Test12= 2.47D-14 2.08D-09 XBig12= 2.63D+01 8.99D-01.
 AX will form    45 AO Fock derivatives at one time.
     45 vectors produced by pass  1 Test12= 2.47D-14 2.08D-09 XBig12= 2.58D+00 2.69D-01.
     45 vectors produced by pass  2 Test12= 2.47D-14 2.08D-09 XBig12= 5.50D-02 4.45D-02.
     45 vectors produced by pass  3 Test12= 2.47D-14 2.08D-09 XBig12= 7.58D-04 4.33D-03.
     45 vectors produced by pass  4 Test12= 2.47D-14 2.08D-09 XBig12= 1.03D-05 3.40D-04.
     45 vectors produced by pass  5 Test12= 2.47D-14 2.08D-09 XBig12= 8.60D-08 3.26D-05.
     45 vectors produced by pass  6 Test12= 2.47D-14 2.08D-09 XBig12= 6.42D-10 3.00D-06.
     17 vectors produced by pass  7 Test12= 2.47D-14 2.08D-09 XBig12= 4.37D-12 1.96D-07.
      3 vectors produced by pass  8 Test12= 2.47D-14 2.08D-09 XBig12= 2.74D-14 1.78D-08.
 InvSVY:  IOpt=1 It=  1 EMax= 3.55D-15
 Solved reduced A of dimension   335 with    48 vectors.
 Isotropic polarizability for W=    0.000000       69.53 Bohr**3.
 End of Minotr F.D. properties file   721 does not exist.
 End of Minotr F.D. properties file   722 does not exist.
 End of Minotr F.D. properties file   788 does not exist.
   1 Symmetry operations used in ECPInt.
 ECPInt:  NShTT=    8911 NPrTT=   25186 LenC2=    8617 LenP2D=   19429.
 LDataN:  DoStor=T MaxTD1= 8 Len=  415
 Calling FoFJK, ICntrl=    100127 FMM=F ISym2X=0 I1Cent= 0 IOpClX= 0 NMat=1 NMatS=1 NMatT=0.
 ***** Axes restored to original set *****
 -------------------------------------------------------------------
 Center     Atomic                   Forces (Hartrees/Bohr)
 Number     Number              X              Y              Z
 -------------------------------------------------------------------
      1       14           0.008631306    0.005681136   -0.000715948
      2        8          -0.000317318   -0.000901917   -0.000532557
      3        1          -0.000005711    0.000073045   -0.000189428
      4        8          -0.008972087   -0.005116669   -0.000546811
      5        1           0.000020073    0.000132786    0.000077940
      6        8          -0.000971945    0.000258352    0.000074278
      7        8          -0.004303134   -0.003341318    0.001847586
      8        1           0.006226026    0.003247645    0.000210759
      9        8          -0.000387606   -0.000026686    0.000009634
     10        6           0.000036773   -0.000058976   -0.000197472
     11        1          -0.000040269   -0.000015376    0.000003394
     12        1           0.000009316    0.000007692    0.000033539
     13        6           0.000242378    0.000063680   -0.000029444
     14        1          -0.000060391   -0.000015874   -0.000036467
     15        1          -0.000107411    0.000012481   -0.000009001
 -------------------------------------------------------------------
 Cartesian Forces:  Max     0.008972087 RMS     0.002578861
 FormGI is forming the generalized inverse of G from B-inverse, IUseBI=4.

 GradGradGradGradGradGradGradGradGradGradGradGradGradGradGradGradGradGrad
 Berny optimization.
 Internal  Forces:  Max     0.025076925 RMS     0.004190187
 Search for a saddle point.
 Step number   2 out of a maximum of   78
 All quantities printed in internal units (Hartrees-Bohrs-Radians)
 Swapping is turned off.
 Second derivative matrix not updated -- analytic derivatives used.
 ITU=  0  0
     Eigenvalues ---   -0.14028   0.00214   0.00342   0.00396   0.01027
     Eigenvalues ---    0.02247   0.02635   0.03882   0.04303   0.04590
     Eigenvalues ---    0.05011   0.05514   0.06926   0.08057   0.08439
     Eigenvalues ---    0.09373   0.09814   0.10127   0.10429   0.11404
     Eigenvalues ---    0.13193   0.13513   0.15349   0.18239   0.19968
     Eigenvalues ---    0.22969   0.26504   0.27718   0.29963   0.30576
     Eigenvalues ---    0.30855   0.31070   0.32054   0.32351   0.35129
     Eigenvalues ---    0.40239   0.44875   0.55056   0.56414
 Eigenvectors required to have negative eigenvalues:
                          A11       A10       R9        R7        D2
   1                    0.64196   0.51133   0.22915  -0.20255   0.18472
                          D7        D5        R3        D8        A6
   1                   -0.17702  -0.17058  -0.14732   0.14003   0.13883
 RFO step:  Lambda0=5.112053344D-03 Lambda=-5.69570330D-03.
 Linear search not attempted -- option 19 set.
 Maximum step size (   0.300) exceeded in Quadratic search.
    -- Step size scaled by   0.753
 Iteration  1 RMS(Cart)=  0.02861920 RMS(Int)=  0.00755343
 Iteration  2 RMS(Cart)=  0.00918377 RMS(Int)=  0.00007179
 Iteration  3 RMS(Cart)=  0.00003113 RMS(Int)=  0.00007084
 Iteration  4 RMS(Cart)=  0.00000000 RMS(Int)=  0.00007084
 Variable       Old X    -DE/DX   Delta X   Delta X   Delta X     New X
                                 (Linear)    (Quad)   (Total)
    R1        3.13766   0.00084   0.00000   0.00592   0.00592   3.14358
    R2        3.16393   0.00071   0.00000   0.00584   0.00584   3.16978
    R3        3.03649  -0.00146   0.00000  -0.02126  -0.02126   3.01523
    R4        3.23728   0.00038   0.00000   0.00086   0.00087   3.23814
    R5        1.80545   0.00002   0.00000  -0.00060  -0.00060   1.80485
    R6        1.80793  -0.00011   0.00000  -0.00058  -0.00058   1.80736
    R7        2.76529  -0.00614   0.00000  -0.26132  -0.26132   2.50396
    R8        2.64512  -0.00007   0.00000  -0.00163  -0.00164   2.64348
    R9        1.98200  -0.00298   0.00000   0.10781   0.10781   2.08981
   R10        2.64100  -0.00008   0.00000  -0.00026  -0.00027   2.64073
   R11        2.07097   0.00004   0.00000   0.00026   0.00026   2.07124
   R12        2.07797   0.00004   0.00000   0.00014   0.00014   2.07810
   R13        2.89741  -0.00005   0.00000   0.00032   0.00032   2.89773
   R14        2.07897   0.00005   0.00000   0.00060   0.00060   2.07957
   R15        2.06940   0.00005   0.00000   0.00041   0.00041   2.06981
    A1        2.00431   0.00008   0.00000  -0.01875  -0.01891   1.98541
    A2        2.04704   0.00021   0.00000  -0.00309  -0.00343   2.04361
    A3        1.73927  -0.00045   0.00000   0.00157   0.00150   1.74077
    A4        2.07034   0.00022   0.00000  -0.00090  -0.00126   2.06908
    A5        1.63348  -0.00036   0.00000  -0.00059  -0.00062   1.63286
    A6        1.86953  -0.00008   0.00000   0.03488   0.03484   1.90437
    A7        1.89734   0.00022   0.00000   0.00095   0.00095   1.89829
    A8        1.90334   0.00014   0.00000  -0.02173  -0.02173   1.88161
    A9        1.95367   0.00013   0.00000  -0.00116  -0.00115   1.95252
   A10        1.61364  -0.02508   0.00000  -0.03683  -0.03683   1.57681
   A11        2.58896  -0.02263   0.00000   0.07795   0.07795   2.66691
   A12        1.91833   0.00019   0.00000   0.00045   0.00046   1.91879
   A13        1.92777  -0.00001   0.00000  -0.00004  -0.00003   1.92774
   A14        1.93078  -0.00003   0.00000  -0.00003  -0.00002   1.93076
   A15        1.85349   0.00005   0.00000   0.00090   0.00088   1.85437
   A16        1.88461   0.00000   0.00000  -0.00013  -0.00013   1.88447
   A17        1.94796  -0.00001   0.00000  -0.00027  -0.00028   1.94768
   A18        1.91979  -0.00001   0.00000  -0.00042  -0.00040   1.91939
   A19        1.86939   0.00000   0.00000   0.00025   0.00025   1.86964
   A20        1.92350   0.00002   0.00000   0.00108   0.00108   1.92458
   A21        1.91798   0.00007   0.00000   0.00098   0.00098   1.91896
   A22        1.91907  -0.00005   0.00000  -0.00068  -0.00068   1.91839
   A23        1.95035  -0.00003   0.00000  -0.00091  -0.00090   1.94944
   A24        1.88392  -0.00001   0.00000  -0.00068  -0.00068   1.88324
    D1       -1.67545   0.00060   0.00000   0.00892   0.00902  -1.66643
    D2        2.05293  -0.00031   0.00000   0.04620   0.04609   2.09901
    D3        0.04465  -0.00001   0.00000   0.00450   0.00451   0.04916
    D4        1.69308  -0.00066   0.00000  -0.00649  -0.00653   1.68654
    D5       -2.04359   0.00025   0.00000  -0.04519  -0.04508  -2.08867
    D6       -0.09358   0.00000   0.00000  -0.00484  -0.00483  -0.09840
    D7        1.22282   0.00053   0.00000  -0.02145  -0.02149   1.20133
    D8       -1.30933  -0.00037   0.00000   0.02341   0.02346  -1.28587
    D9       -3.12529   0.00002   0.00000   0.00223   0.00223  -3.12307
   D10       -2.31357   0.00007   0.00000   0.02328   0.02342  -2.29015
   D11       -0.28984   0.00001   0.00000   0.00416   0.00412  -0.28571
   D12        1.82961   0.00008   0.00000   0.01208   0.01208   1.84169
   D13       -1.61465  -0.00013   0.00000  -0.02011  -0.02011  -1.63476
   D14        0.41096  -0.00003   0.00000   0.00406   0.00406   0.41502
   D15       -1.67629   0.00002   0.00000   0.00413   0.00413  -1.67217
   D16        2.53286  -0.00002   0.00000   0.00369   0.00369   2.53655
   D17        0.08679  -0.00086   0.00000   0.00346   0.00346   0.09026
   D18        2.66212   0.00004   0.00000  -0.00192  -0.00191   2.66021
   D19       -1.53543   0.00002   0.00000  -0.00213  -0.00212  -1.53755
   D20        0.54724   0.00003   0.00000  -0.00212  -0.00209   0.54515
   D21       -0.60905   0.00004   0.00000  -0.00161  -0.00162  -0.61067
   D22        1.48104   0.00003   0.00000  -0.00055  -0.00056   1.48048
   D23       -2.71046  -0.00003   0.00000  -0.00245  -0.00245  -2.71291
   D24       -2.71092   0.00002   0.00000  -0.00198  -0.00198  -2.71289
   D25       -0.62082   0.00001   0.00000  -0.00092  -0.00091  -0.62173
   D26        1.47086  -0.00005   0.00000  -0.00281  -0.00281   1.46805
   D27        1.48080   0.00003   0.00000  -0.00135  -0.00136   1.47944
   D28       -2.71229   0.00002   0.00000  -0.00029  -0.00029  -2.71259
   D29       -0.62061  -0.00004   0.00000  -0.00219  -0.00219  -0.62280
         Item               Value     Threshold  Converged?
 Maximum Force            0.025077     0.000450     NO 
 RMS     Force            0.004190     0.000300     NO 
 Maximum Displacement     0.159192     0.001800     NO 
 RMS     Displacement     0.031844     0.001200     NO 
 Predicted change in Energy=-4.411723D-04
 GradGradGradGradGradGradGradGradGradGradGradGradGradGradGradGradGradGrad

                          Input orientation:                          
 ---------------------------------------------------------------------
 Center     Atomic      Atomic             Coordinates (Angstroms)
 Number     Number       Type             X           Y           Z
 ---------------------------------------------------------------------
      1         14           0        0.323423   -0.275002    0.050519
      2          8           0        0.923044   -0.970130   -1.336754
      3          1           0        0.275539   -1.584035   -1.677413
      4          8           0        2.491544    0.969319    0.085857
      5          1           0        3.011782    0.438849   -0.516370
      6          8           0       -0.421835    1.206097   -0.203494
      7          8           0        1.163266   -0.486195    1.390657
      8          1           0        1.970355    0.157560    0.994230
      9          8           0       -1.161474   -1.120349    0.179855
     10          6           0       -2.206358   -0.217898    0.395648
     11          1           0       -3.148093   -0.622374    0.007238
     12          1           0       -2.337037   -0.026447    1.470626
     13          6           0       -1.809672    1.077496   -0.322653
     14          1           0       -2.097690    1.021316   -1.383266
     15          1           0       -2.304839    1.951026    0.114873
 ---------------------------------------------------------------------
                    Distance matrix (angstroms):
                    1          2          3          4          5
     1  Si   0.000000
     2  O    1.663513   0.000000
     3  H    2.168319   0.955086   0.000000
     4  O    2.500067   2.871494   3.813059   0.000000
     5  H    2.838700   2.649732   3.595429   0.956411   0.000000
     6  O    1.677375   2.798025   3.231656   2.937272   3.532179
     7  O    1.595591   2.780408   3.377331   2.363335   2.812378
     8  H    1.946814   2.793212   3.611542   1.325041   1.856234
     9  O    1.713552   2.582225   2.393628   4.209524   4.509090
    10  C    2.553853   3.655165   3.510516   4.855486   5.337797
    11  H    3.489121   4.301326   3.934983   5.860476   6.272513
    12  H    3.025976   4.404549   4.377417   5.120970   5.724903
    13  C    2.553155   3.562150   3.642420   4.321926   4.867424
    14  H    3.098059   3.618405   3.536466   4.818931   5.215120
    15  H    3.444867   4.589075   4.729408   4.895905   5.563417
                    6          7          8          9         10
     6  O    0.000000
     7  O    2.813844   0.000000
     8  H    2.873421   1.105879   0.000000
     9  O    2.471108   2.696778   3.479169   0.000000
    10  C    2.360351   3.523690   4.236060   1.397414   0.000000
    11  H    3.289407   4.529924   5.270765   2.055342   1.096051
    12  H    2.826631   3.531272   4.337561   2.060257   1.099685
    13  C    1.398867   3.770798   4.107197   2.345889   1.533415
    14  H    2.057789   4.538840   4.790360   2.811863   2.170713
    15  H    2.049874   4.426672   4.718801   3.277934   2.189239
                   11         12         13         14         15
    11  H    0.000000
    12  H    1.776076   0.000000
    13  C    2.188550   2.170864   0.000000
    14  H    2.395530   3.049556   1.100459   0.000000
    15  H    2.710175   2.397813   1.095297   1.775301   0.000000
 Stoichiometry    C2H7O5Si(1-)
 Framework group  C1[X(C2H7O5Si)]
 Deg. of freedom    39
 Full point group                 C1      NOp   1
 Largest Abelian subgroup         C1      NOp   1
 Largest concise Abelian subgroup C1      NOp   1
                         Standard orientation:                         
 ---------------------------------------------------------------------
 Center     Atomic      Atomic             Coordinates (Angstroms)
 Number     Number       Type             X           Y           Z
 ---------------------------------------------------------------------
      1         14           0        0.325940   -0.267099    0.043218
      2          8           0        0.907098   -1.022285   -1.320316
      3          1           0        0.253176   -1.646706   -1.628009
      4          8           0        2.499743    0.967121    0.003023
      5          1           0        3.010946    0.409524   -0.582194
      6          8           0       -0.415602    1.205722   -0.264193
      7          8           0        1.179655   -0.426358    1.381767
      8          1           0        1.985109    0.196422    0.950075
      9          8           0       -1.161117   -1.099140    0.223856
     10          6           0       -2.199586   -0.183446    0.413205
     11          1           0       -3.147330   -0.599189    0.052278
     12          1           0       -2.317501    0.053233    1.480625
     13          6           0       -1.805224    1.078979   -0.362760
     14          1           0       -2.105225    0.980073   -1.416908
     15          1           0       -2.291684    1.972355    0.043332
 ---------------------------------------------------------------------
 Rotational constants (GHZ):           2.9076176           1.3652098           1.2641170
 Standard basis: def2TZVPP (5D, 7F)
 There are   405 symmetry adapted cartesian basis functions of A   symmetry.
 There are   357 symmetry adapted basis functions of A   symmetry.
   357 basis functions,   545 primitive gaussians,   405 cartesian basis functions
    37 alpha electrons       37 beta electrons
       nuclear repulsion energy       532.2444995776 Hartrees.
 NAtoms=   15 NActive=   15 NUniq=   15 SFac= 1.00D+00 NAtFMM=   60 NAOKFM=F Big=F
 Integral buffers will be    131072 words long.
 Raffenetti 2 integral format.
 Two-electron integral symmetry is turned on.
 Nuclear repulsion after empirical dispersion term =      532.2381190760 Hartrees.
 One-electron integrals computed using PRISM.
   1 Symmetry operations used in ECPInt.
 ECPInt:  NShTT=    8911 NPrTT=   25186 LenC2=    8619 LenP2D=   19431.
 LDataN:  DoStor=T MaxTD1= 6 Len=  172
 NBasis=   357 RedAO= T EigKep=  3.12D-04  NBF=   357
 NBsUse=   357 1.00D-06 EigRej= -1.00D+00 NBFU=   357
 Initial guess from the checkpoint file:  "ScanTS_attempt_PbiL_QbiL_collapse.chk"
 B after Tr=    -0.000000    0.000000   -0.000000
         Rot=    0.999977    0.006203   -0.002778    0.000031 Ang=   0.78 deg.
 ExpMin= 7.01D-02 ExpMax= 4.48D+04 ExpMxC= 1.53D+03 IAcc=3 IRadAn=         5 AccDes= 0.00D+00
 Harris functional with IExCor= 4639 and IRadAn=       5 diagonalized for initial guess.
 HarFok:  IExCor= 4639 AccDes= 0.00D+00 IRadAn=         5 IDoV= 1 UseB2=F ITyADJ=14
 ICtDFT=  3500011 ScaDFX=  1.000000  1.000000  1.000000  1.000000
 FoFCou: FMM=F IPFlag=           0 FMFlag=      100000 FMFlg1=           0
         NFxFlg=           0 DoJE=T BraDBF=F KetDBF=T FulRan=T
         wScrn=  0.000000 ICntrl=       500 IOpCl=  0 I1Cent=   200000004 NGrid=           0
         NMat0=    1 NMatS0=      1 NMatT0=    0 NMatD0=    1 NMtDS0=    0 NMtDT0=    0
 Petite list used in FoFCou.
 Requested convergence on RMS density matrix=1.00D-08 within 128 cycles.
 Requested convergence on MAX density matrix=1.00D-06.
 Requested convergence on             energy=1.00D-06.
 No special actions if energy rises.
 Integral accuracy reduced to 1.0D-05 until final iterations.
 Initial convergence to 1.0D-05 achieved.  Increase integral accuracy.
 SCF Done:  E(RwB97XD) =  -746.313796907     A.U. after   12 cycles
            NFock= 12  Conv=0.98D-08     -V/T= 2.0033
 DoSCS=F DFT=T ScalE2(SS,OS)=  1.000000  1.000000
 Range of M.O.s used for correlation:     1   357
 NBasis=   357 NAE=    37 NBE=    37 NFC=     0 NFV=     0
 NROrb=    357 NOA=    37 NOB=    37 NVA=   320 NVB=   320

 **** Warning!!: The largest alpha MO coefficient is  0.12512553D+02

   1 Symmetry operations used in ECPInt.
 ECPInt:  NShTT=    8911 NPrTT=   25186 LenC2=    8619 LenP2D=   19431.
 LDataN:  DoStor=T MaxTD1= 7 Len=  274
 Symmetrizing basis deriv contribution to polar:
 IMax=3 JMax=2 DiffMx= 0.00D+00
 G2DrvN: will do    16 centers at a time, making    1 passes.
 Calling FoFCou, ICntrl=  3107 FMM=F I1Cent=   0 AccDes= 0.00D+00.
 End of G2Drv F.D. properties file   721 does not exist.
 End of G2Drv F.D. properties file   722 does not exist.
 End of G2Drv F.D. properties file   788 does not exist.
          IDoAtm=111111111111111
          Differentiating once with respect to electric field.
                with respect to dipole field.
          Differentiating once with respect to nuclear coordinates.
 CalDSu exits because no D1Ps are significant.
          There are    48 degrees of freedom in the 1st order CPHF.  IDoFFX=6 NUNeed=     3.
     45 vectors produced by pass  0 Test12= 2.47D-14 2.08D-09 XBig12= 2.60D+01 8.55D-01.
 AX will form    45 AO Fock derivatives at one time.
     45 vectors produced by pass  1 Test12= 2.47D-14 2.08D-09 XBig12= 2.56D+00 2.79D-01.
     45 vectors produced by pass  2 Test12= 2.47D-14 2.08D-09 XBig12= 5.39D-02 4.37D-02.
     45 vectors produced by pass  3 Test12= 2.47D-14 2.08D-09 XBig12= 8.17D-04 4.10D-03.
     45 vectors produced by pass  4 Test12= 2.47D-14 2.08D-09 XBig12= 1.02D-05 4.74D-04.
     45 vectors produced by pass  5 Test12= 2.47D-14 2.08D-09 XBig12= 8.26D-08 4.59D-05.
     45 vectors produced by pass  6 Test12= 2.47D-14 2.08D-09 XBig12= 6.43D-10 3.75D-06.
     18 vectors produced by pass  7 Test12= 2.47D-14 2.08D-09 XBig12= 4.44D-12 1.92D-07.
      3 vectors produced by pass  8 Test12= 2.47D-14 2.08D-09 XBig12= 2.81D-14 1.95D-08.
 InvSVY:  IOpt=1 It=  1 EMax= 7.11D-15
 Solved reduced A of dimension   336 with    48 vectors.
 Isotropic polarizability for W=    0.000000       69.24 Bohr**3.
 End of Minotr F.D. properties file   721 does not exist.
 End of Minotr F.D. properties file   722 does not exist.
 End of Minotr F.D. properties file   788 does not exist.
   1 Symmetry operations used in ECPInt.
 ECPInt:  NShTT=    8911 NPrTT=   25186 LenC2=    8619 LenP2D=   19431.
 LDataN:  DoStor=T MaxTD1= 8 Len=  415
 Calling FoFJK, ICntrl=    100127 FMM=F ISym2X=0 I1Cent= 0 IOpClX= 0 NMat=1 NMatS=1 NMatT=0.
 ***** Axes restored to original set *****
 -------------------------------------------------------------------
 Center     Atomic                   Forces (Hartrees/Bohr)
 Number     Number              X              Y              Z
 -------------------------------------------------------------------
      1       14           0.002794677    0.001780685    0.000179799
      2        8          -0.000139918   -0.000673885   -0.000426492
      3        1          -0.000059783    0.000119923   -0.000145242
      4        8          -0.002876889   -0.001289438   -0.001014880
      5        1           0.000009706    0.000144849    0.000018073
      6        8          -0.000711809    0.000216022    0.000121771
      7        8          -0.007719569   -0.005805526    0.002907281
      8        1           0.008994971    0.005574788   -0.001321622
      9        8          -0.000385355   -0.000035461   -0.000034253
     10        6           0.000072908   -0.000091530   -0.000179997
     11        1          -0.000049864    0.000008979    0.000012695
     12        1           0.000003526    0.000011330    0.000030676
     13        6           0.000191698    0.000044678   -0.000082636
     14        1          -0.000041819   -0.000026354   -0.000033570
     15        1          -0.000082481    0.000020940   -0.000031603
 -------------------------------------------------------------------
 Cartesian Forces:  Max     0.008994971 RMS     0.002304621
 FormGI is forming the generalized inverse of G from B-inverse, IUseBI=4.

 GradGradGradGradGradGradGradGradGradGradGradGradGradGradGradGradGradGrad
 Berny optimization.
 Internal  Forces:  Max     0.007881435 RMS     0.001540663
 Search for a saddle point.
 Step number   3 out of a maximum of   78
 All quantities printed in internal units (Hartrees-Bohrs-Radians)
 Swapping is turned off.
 Second derivative matrix not updated -- analytic derivatives used.
 ITU=  0  0  0
     Eigenvalues ---   -0.11215   0.00187   0.00329   0.00380   0.00743
     Eigenvalues ---    0.02246   0.02649   0.04276   0.04538   0.04992
     Eigenvalues ---    0.05183   0.05633   0.06813   0.07899   0.08462
     Eigenvalues ---    0.09370   0.09810   0.10077   0.10410   0.11274
     Eigenvalues ---    0.12426   0.13161   0.15719   0.18053   0.20049
     Eigenvalues ---    0.22797   0.26454   0.27556   0.28385   0.29906
     Eigenvalues ---    0.30569   0.30895   0.32013   0.32313   0.35160
     Eigenvalues ---    0.40293   0.46665   0.55271   0.56547
 Eigenvectors required to have negative eigenvalues:
                          A11       A10       R9        R7        D2
   1                    0.56714   0.47209   0.33415  -0.33331   0.19038
                          D7        D5        A6        R3        D8
   1                   -0.18420  -0.17750   0.15053  -0.13861   0.13314
 RFO step:  Lambda0=1.848350220D-04 Lambda=-2.49774325D-03.
 Linear search not attempted -- option 19 set.
 Iteration  1 RMS(Cart)=  0.04663589 RMS(Int)=  0.00205476
 Iteration  2 RMS(Cart)=  0.00208675 RMS(Int)=  0.00007049
 Iteration  3 RMS(Cart)=  0.00001540 RMS(Int)=  0.00006971
 Iteration  4 RMS(Cart)=  0.00000000 RMS(Int)=  0.00006971
 Variable       Old X    -DE/DX   Delta X   Delta X   Delta X     New X
                                 (Linear)    (Quad)   (Total)
    R1        3.14358   0.00064   0.00000   0.01590   0.01590   3.15948
    R2        3.16978   0.00052   0.00000   0.01234   0.01237   3.18215
    R3        3.01523  -0.00016   0.00000  -0.00708  -0.00708   3.00815
    R4        3.23814   0.00037   0.00000   0.01873   0.01876   3.25690
    R5        1.80485   0.00002   0.00000   0.00002   0.00002   1.80488
    R6        1.80736  -0.00009   0.00000  -0.00070  -0.00070   1.80665
    R7        2.50396  -0.00115   0.00000  -0.19896  -0.19896   2.30500
    R8        2.64348  -0.00007   0.00000  -0.00309  -0.00310   2.64038
    R9        2.08981   0.00788   0.00000   0.15813   0.15813   2.24794
   R10        2.64073  -0.00007   0.00000  -0.00534  -0.00536   2.63537
   R11        2.07124   0.00003   0.00000   0.00134   0.00134   2.07258
   R12        2.07810   0.00003   0.00000   0.00153   0.00153   2.07964
   R13        2.89773  -0.00003   0.00000  -0.00118  -0.00122   2.89651
   R14        2.07957   0.00004   0.00000   0.00110   0.00110   2.08067
   R15        2.06981   0.00004   0.00000   0.00109   0.00109   2.07090
    A1        1.98541   0.00000   0.00000  -0.00220  -0.00262   1.98279
    A2        2.04361   0.00012   0.00000   0.01168   0.01150   2.05511
    A3        1.74077  -0.00037   0.00000  -0.02789  -0.02792   1.71285
[...]
 Cartesian Forces:  Max     0.000007906 RMS     0.000002912

 ----------------------------------------------------------------------

 Electric dipole moment (input orientation):
 (Debye = 10**-18 statcoulomb cm , SI units = C m)
                  (au)            (Debye)         (10**-30 SI)
   Tot        0.220339D+01      0.560046D+01      0.186811D+02
   x         -0.194884D+01     -0.495345D+01     -0.165229D+02
   y         -0.288925D+00     -0.734375D+00     -0.244961D+01
   z         -0.986655D+00     -0.250783D+01     -0.836521D+01

 Dipole polarizability, Alpha (input orientation).
 (esu units = cm**3 , SI units = C**2 m**2 J**-1)
 Alpha(0;0):
               (au)            (10**-24 esu)      (10**-40 SI)
   iso        0.692151D+02      0.102566D+02      0.114120D+02
   aniso      0.174067D+02      0.257941D+01      0.286998D+01
   xx         0.807090D+02      0.119598D+02      0.133071D+02
   yx        -0.332498D-01     -0.492711D-02     -0.548215D-02
   yy         0.632970D+02      0.937965D+01      0.104363D+02
   zx        -0.136105D+01     -0.201687D+00     -0.224407D+00
   zy        -0.179356D+00     -0.265778D-01     -0.295718D-01
   zz         0.636392D+02      0.943036D+01      0.104927D+02

 ----------------------------------------------------------------------

 Dipole orientation:
    14          0.22009198          0.54747811         -0.62649563
     8          3.17519565          1.61555479         -0.23078991
     1          3.20717847          2.60055907          1.28140310
     8          1.82255220         -1.36000726         -4.16602368
     1          3.36589561         -0.45098437         -4.40571726
     8         -0.26370975         -2.39198532          0.50621534
     8         -1.33503538          1.49788573         -3.02894636
     1          0.09487053          0.16916793         -4.22428838
     8         -1.07292734          1.93770535          2.03565690
     6         -2.48826676          0.17579747          3.38576839
     1         -2.56137157          0.67902173          5.39565646
     1         -4.44287071          0.09675060          2.67749156
     6         -1.19145997         -2.38074049          2.97727224
     1          0.36902924         -2.60519976          4.33537678
     1         -2.50301975         -3.96036601          3.25132964

 Electric dipole moment (dipole orientation):
 (Debye = 10**-18 statcoulomb cm , SI units = C m)
                  (au)            (Debye)         (10**-30 SI)
   Tot        0.220339D+01      0.560046D+01      0.186811D+02
   x          0.000000D+00      0.000000D+00      0.000000D+00
   y          0.000000D+00      0.000000D+00      0.000000D+00
   z          0.220339D+01      0.560046D+01      0.186811D+02

 Dipole polarizability, Alpha (dipole orientation).
 (esu units = cm**3 , SI units = C**2 m**2 J**-1)
 Alpha(0;0):
               (au)            (10**-24 esu)      (10**-40 SI)
   iso        0.692151D+02      0.102566D+02      0.114120D+02
   aniso      0.174067D+02      0.257941D+01      0.286998D+01
   xx         0.683275D+02      0.101251D+02      0.112657D+02
   yx         0.476315D+00      0.705825D-01      0.785337D-01
   yy         0.634378D+02      0.940051D+01      0.104595D+02
   zx        -0.775569D+01     -0.114928D+01     -0.127874D+01
   zy        -0.115209D+01     -0.170722D+00     -0.189954D+00
   zz         0.758800D+02      0.112443D+02      0.125109D+02

 ----------------------------------------------------------------------
 Unable to Open any file for archive entry.
 1\1\GINC-GRA1329\Freq\RwB97XD\def2TZVPP\C2H7O5Si1(1-)\ARHENDER\15-Feb-
 2024\0\\# opt=(calcall,ts,noeigen) wb97xd/def2tzvpp geom=connectivity\
 \TS attempt PbiL1 collapse to QbiL from scan energy max\\-1,1\Si,0.369
 970785,-0.2521297275,0.0834314731\O,0.9488540635,-0.9633468772,-1.3193
 346417\H,0.2906188916,-1.5846847833,-1.6242839988\O,2.3355490819,0.922
 9572493,0.0397790677\H,2.8616803624,0.398844348,-0.5626961071\O,-0.402
 4749008,1.2268039587,-0.1625048701\O,1.1564314099,-0.5164617287,1.4465
 301136\H,2.0073932872,0.2006441925,0.9683225938\O,-1.131615954,-1.1089
 829226,0.1542629618\C,-2.1824880987,-0.2213807373,0.3745206986\H,-3.11
 96507382,-0.6208796614,-0.0326076657\H,-2.329782617,-0.0480428471,1.45
 17061261\C,-1.7842275368,1.0887862888,-0.3130400202\H,-2.0498120989,1.
 04576501,-1.3808065308\H,-2.298489937,1.9513422379,0.1262747996\\Versi
 on=ES64L-G16RevC.01\State=1-A\HF=-746.3153662\RMSD=7.545e-09\RMSF=2.91
 2e-06\ZeroPoint=0.1054027\Thermal=0.1141688\ETot=-746.2011974\HTot=-74
 6.2002532\GTot=-746.2433134\Dipole=-1.9488358,-0.2889255,-0.986655\Dip
 oleDeriv=3.0335802,-0.0101152,0.0319988,0.041632,1.7979779,0.0475485,0
 .1871447,0.1543849,1.8283098,-0.8018367,0.1819672,0.1601605,0.1405056,
 -0.7451996,-0.2171404,0.1519869,-0.3071942,-1.0731519,0.2117218,-0.106
 6028,-0.0679252,-0.1139397,0.2329731,0.0008804,-0.0891856,0.0160747,0.
 2950911,-1.1880106,-0.4095615,0.0532654,-0.584443,-0.8100488,0.2909098
 ,0.2280017,0.3189064,-0.8313333,0.2345089,0.0720769,0.0716521,0.112418
 9,0.147575,-0.0776343,0.085823,-0.0401606,0.1734918,-1.446002,0.207384
 9,-0.1390038,0.2499167,-0.8797753,0.0832232,-0.1376318,0.0941707,-0.52
 7646,-1.3590558,-0.2080506,0.0489638,-0.2630424,-0.9354172,0.2382234,-
 0.0184241,0.2201175,-1.121664,0.6588787,0.3860448,-0.3266095,0.5217154
 ,0.5640767,-0.3751421,-0.4808221,-0.398444,0.5968518,-1.4579798,0.1216
 126,0.1654498,0.1064244,-0.8697153,-0.0359576,0.1057192,-0.0439053,-0.
 5626544,0.7634375,-0.1128553,-0.0720088,-0.3525384,0.3997509,0.1227963
 ,-0.065552,0.0804333,0.383549,-0.2851521,-0.0700417,-0.0523475,-0.1015
 875,-0.0158914,-0.0167753,-0.1282116,-0.0447654,-0.005272,-0.034037,0.
 020519,0.0408675,0.0546692,-0.0219845,-0.0511515,0.1395183,-0.0383364,
 -0.2654651,0.8677303,-0.2099442,0.1193809,0.0523582,0.2943386,0.060945
 3,0.0922538,0.0499221,0.3997372,-0.0854952,0.0144863,-0.0690974,-0.024
 7636,0.0073425,-0.021951,-0.1507485,0.0483114,-0.2791429,-0.1122882,0.
 1230796,0.0352534,0.1606742,-0.1660026,-0.0487745,0.080128,-0.1095152,
 -0.0107009\Polar=80.7090059,-0.0332498,63.2969975,-1.3610491,-0.179355
 9,63.639193\PG=C01 [X(C2H7O5Si1)]\NImag=1\\0.42383528,-0.11384351,0.34
 578328,0.11648649,0.02638549,0.54549692,-0.06438097,0.01553045,0.03593
 695,0.34705535,0.03522404,-0.07058179,-0.07179755,0.21735304,0.3110215
 3,0.05956118,-0.05344475,-0.16602153,0.04478470,0.20419608,0.26291437,
 0.00605351,0.00466529,0.00580330,-0.26569238,-0.24800751,-0.12376857,0
 .26521360,-0.01090207,-0.00835334,-0.00852335,-0.22936011,-0.23635377,
 -0.12699372,0.24249738,0.24672368,-0.01497730,-0.02095589,-0.01316873,
 -0.09957770,-0.11267126,-0.07368899,0.11657432,0.13065521,0.08590898,0
 .02899042,0.01965052,-0.00085900,-0.00570516,-0.01035435,-0.00838151,0
 .00070153,-0.00132224,-0.00077794,0.20984037,0.02244822,-0.01558204,0.
 01333635,-0.00764765,-0.00687856,-0.00912701,-0.00030632,-0.00042034,-
 0.00103102,-0.14055551,0.26412216,0.01355464,0.01706419,-0.04892440,-0
 .00925861,-0.01089077,0.00173948,-0.00049176,-0.00220782,-0.00098018,-
 0.22373812,0.13623942,0.30169154,-0.00671581,0.00602785,0.00949561,0.0
 0226891,0.00173655,0.00012444,0.00078207,0.00032047,-0.00004587,-0.171
 70341,0.15354084,0.18506001,0.17955700,-0.00259202,0.00249220,0.003305
 44,0.00003085,-0.00112142,-0.00066930,0.00025127,-0.00032647,-0.000010
 97,0.16950978,-0.17996624,-0.18861193,-0.15997512,0.17428714,0.0023817
 2,0.00247200,0.00199968,-0.00063407,-0.00073688,-0.00158759,-0.0000291
 0,0.00001559,-0.00034847,0.18351410,-0.16975391,-0.22806785,-0.1930717
 6,0.18064404,0.23513056,-0.06781646,0.06085828,-0.01364794,0.00138894,
 0.01157427,0.00414499,-0.00241445,0.00117641,0.00054615,-0.01759477,0.
 00215287,-0.00225869,-0.00156204,-0.00004073,-0.00130935,0.42894840,0.
 04925014,-0.15646994,0.02079264,0.00614227,-0.00713061,-0.00349173,0.0
 0068357,0.00026341,0.00110942,0.00204995,0.00429021,-0.00227188,-0.000
 53481,-0.00010525,0.00012197,-0.04328699,0.27596049,-0.01073698,0.0214
 4574,-0.04203521,0.00652177,-0.01015991,0.00255877,0.00071314,0.000527
 34,-0.00013971,-0.00202069,-0.00214359,0.00503773,-0.00079541,0.000010
 44,-0.00048530,0.04830878,-0.03177225,0.08071541,-0.12475673,0.0140654
 5,-0.10746726,0.00973517,0.00255134,-0.00211063,-0.00037981,0.00118328
 ,0.00227198,-0.01616312,-0.05387412,0.06913130,0.00041484,-0.00385024,
 0.00131547,-0.00115161,0.00797158,-0.01114073,0.17549866,0.02691955,-0
 .06054288,0.05375494,-0.00017642,0.00781662,-0.01152659,0.00067749,0.0
 0069580,0.00093743,-0.03817917,-0.02405799,0.05823141,-0.00446787,-0.0
 0754201,0.00542217,0.01370089,0.00002564,0.00885948,0.01497821,0.10588
 588,-0.13128116,0.04036187,-0.27225397,-0.00667686,-0.00245841,-0.0145
 9159,0.00101539,0.00144174,-0.00207260,0.03640790,0.03950270,-0.020146
 02,0.00028172,0.00236816,0.00027985,-0.00693515,0.00220911,0.00157121,
 0.10488467,-0.09117204,0.34471781,-0.02271276,0.00521042,-0.04904746,-
 0.00272653,-0.00261391,0.00509876,-0.00044468,-0.00083762,-0.00053000,
 -0.02644419,0.02760977,-0.03556800,-0.00343865,-0.00344185,0.00782003,
 0.00020204,-0.00287888,0.00383637,-0.02533915,0.00210439,0.00773214,0.
 07838579,0.00109755,0.03117917,-0.03984676,-0.00246612,-0.00359482,0.0
 0495580,-0.00035044,-0.00110278,-0.00056236,-0.00079205,-0.04197939,-0
 .00821982,0.00361241,0.01213577,-0.01801341,-0.00243613,-0.00398913,0.
 00360682,0.02188860,-0.02561249,0.00683961,-0.02486347,0.03172285,-0.0
 3887430,-0.03394170,0.03860434,0.00478921,0.00471044,-0.00425476,0.000
 29266,0.00085481,0.00138660,0.01548905,-0.00454697,-0.01735832,0.,0.00
 347398,-0.00662180,0.00335535,0.00303888,-0.00383235,-0.03545019,-0.01
 846195,-0.03977501,0.05677975,0.04528065,0.03895801,-0.10239872,-0.036
 04464,0.00247732,-0.02390873,-0.00368598,0.02010374,-0.00295292,-0.003
 23153,-0.00416605,-0.00327005,-0.00555128,0.00416898,0.00099504,0.0003
 5558,0.00035963,0.01124700,-0.02684545,0.00340213,-0.02312971,-0.01402
 026,-0.00615385,0.00420205,0.00624066,-0.00767500,0.38795615,-0.034758
 06,-0.07350741,0.00051579,0.00488626,0.00864830,-0.00595464,-0.0011024
 2,-0.00011298,0.00336330,-0.00062168,0.00129506,-0.00055264,-0.0004588
 6,-0.00009331,-0.00026121,0.00127422,-0.02506736,0.00401982,-0.0009023
 8,0.00749022,0.00103217,-0.00094376,-0.00032263,0.00122273,-0.07554628
 ,0.27890528,0.00468638,-0.00041044,-0.04272526,0.02114521,-0.00006755,
 -0.00429624,-0.00057810,0.00405528,0.00185613,-0.00036137,-0.00233900,
 0.00547901,-0.00080548,-0.00044205,-0.00027486,-0.00014180,0.00634331,
 0.00882443,-0.01876385,-0.00624242,0.00386805,0.00301885,0.00558661,-0
 .00613061,-0.04991977,0.02161493,0.08813561,-0.04801691,-0.01201618,0.
 00759009,0.00351958,0.00055900,-0.00150950,-0.00160695,0.00068752,0.00
 200250,0.00106279,0.00231144,-0.00143316,-0.00038897,-0.00010534,-0.00
 006130,-0.04287655,-0.01973376,0.01371035,0.00586391,0.00270880,0.0010
 8004,-0.00151818,-0.00234070,0.00190675,-0.17909809,0.07195203,0.02228
 283,0.58627662,0.01294084,0.02073497,-0.00095699,-0.00560255,-0.001340
 59,0.00431762,0.00089338,-0.00094140,-0.00161321,-0.00074286,-0.002012
 48,0.00128466,0.00038927,0.00012972,0.00009932,-0.01410117,-0.02256751
 ,0.00276829,-0.00589198,-0.00434157,-0.00191197,0.00126302,0.00201911,
 -0.00203766,0.09373180,-0.14636512,-0.02105381,0.04170059,0.44766169,0
 .00787057,0.00268632,0.00228537,0.00211445,0.00086207,-0.00141843,0.00
 042832,0.00027069,0.00076288,-0.00067183,-0.00019712,0.00022663,-0.000
 01032,-0.00002514,0.00000230,-0.00094666,-0.00285086,0.00727768,-0.002
 91946,-0.00246860,-0.00252400,0.00020147,0.00020941,-0.00069189,0.0182
 2770,-0.02051090,-0.07323005,0.01618739,0.03347340,0.55922495,0.004007
 39,0.00449623,-0.00175199,-0.00120404,0.00006856,0.00140774,0.00010022
 ,-0.00018978,-0.00050361,-0.00060085,-0.00054512,0.00043607,0.00008106
 ,0.00003835,0.00000666,0.00019885,-0.00189717,0.00108639,-0.00224544,-
 0.00093260,-0.00076719,0.00051495,0.00057529,-0.00068751,-0.03613989,0
 .00177707,-0.00283367,-0.20892307,-0.08162173,-0.07717476,0.24601308,0
 .00036526,-0.00568871,0.00104653,0.00034952,0.00047445,-0.00041054,-0.
 00003424,0.00005605,0.00010022,-0.00023062,0.00030791,-0.00029488,-0.0
 0005029,0.00001350,-0.00003434,-0.00474892,-0.00332782,0.00326460,0.00
 081183,0.00105603,0.00017514,-0.00019210,-0.00032081,0.00045581,0.0304
 3389,0.00821453,0.00737411,-0.08536629,-0.09005931,-0.03815628,0.08288
 568,0.09256829,0.00143782,0.00091058,-0.00071192,-0.00006760,-0.000075
 39,-0.00007219,0.00015964,-0.00003996,-0.00007184,-0.00003546,-0.00018
 092,0.00011589,0.00003103,0.00000833,0.00001294,0.00276900,0.00246971,
 0.00004850,-0.00013626,0.00000105,0.00035144,0.00016613,0.00017578,-0.
 00013175,0.00558653,0.00448573,0.00705898,-0.08155159,-0.04002044,-0.0
 9127402,0.08490190,0.04095379,0.09129383,0.00270859,0.00406088,0.00340
 616,-0.00190763,-0.00034260,0.00073628,0.00029444,-0.00036562,-0.00070
 822,-0.00005866,0.00000915,-0.00033258,0.00010406,0.00004417,0.0000345
 2,0.00144271,-0.00042105,-0.00087755,0.00034564,-0.00022811,-0.0009541
 0,-0.00016021,-0.00024216,0.00019701,-0.01522604,0.01546398,0.03028466
 ,-0.05303026,-0.00451044,0.01547213,0.00337044,-0.00384514,-0.02598134
 ,0.06090795,-0.00352180,-0.00378176,-0.00138453,0.00152790,0.00035546,
 -0.00082951,-0.00026281,0.00026348,0.00063472,0.00013088,0.00021288,0.
 00001505,-0.00008973,-0.00004541,-0.00002236,0.00011134,0.00182024,-0.
 00204361,0.00046245,0.00034073,0.00053835,-0.00004367,-0.00012677,0.00
 010633,0.01799488,-0.00754798,-0.02417086,-0.00332606,-0.05306689,-0.0
 2964411,-0.00097097,-0.00015273,-0.01410487,-0.00994576,0.06251898,-0.
 00412777,-0.00335722,-0.00149472,0.00117776,0.00007477,-0.00042075,-0.
 00027434,0.00029849,0.00042807,0.00034774,0.00025912,0.00002703,-0.000
 09849,-0.00002721,-0.00003330,0.00116516,0.00040868,0.00180608,0.00108
 428,0.00067762,0.00098146,-0.00011109,-0.00019266,0.00016732,0.0149612
 0,-0.00947557,0.00115005,0.01775204,-0.02712509,-0.27620812,-0.0005673
 4,-0.00093979,-0.01245844,-0.02978471,0.03717728,0.30188386,-0.0286792
 8,0.04121958,-0.00827064,0.00164069,-0.00604108,-0.00184555,0.00072232
 ,0.00005190,-0.00005528,0.00274842,0.00055857,0.00071998,-0.00024040,-
 0.00027009,-0.00018365,-0.24150345,-0.00066849,-0.02324013,0.00244385,
 -0.00551174,0.00254390,-0.00094188,0.00021761,-0.00037381,-0.02201173,
 0.02038864,-0.00855023,-0.06860136,-0.03435072,0.01488401,-0.00521625,
 -0.02162586,0.01288238,0.00029611,-0.00020711,-0.00216580,0.49803097,0
 .02013506,-0.00371108,0.00298820,-0.00107465,-0.00151756,-0.00042111,0
 .00047106,-0.00042021,-0.00027086,0.00124192,0.00043185,0.00037091,-0.
 00000787,0.00015670,0.00006244,-0.02309163,-0.07786556,-0.00028394,-0.
 00018825,-0.00164815,0.00091586,-0.00015351,0.00026953,-0.00039654,0.0
 1493886,-0.04729971,0.00878128,-0.01308547,-0.13607747,0.04192635,-0.0
 0281927,-0.00371815,0.00551476,0.00083868,0.00208051,-0.00192500,-0.07
 836185,0.53430513,-0.00758193,0.00409349,0.00049357,0.00009798,-0.0017
 8379,-0.00229995,0.00048567,-0.00075154,0.00054176,0.00158970,0.000098
 59,0.00091985,-0.00009929,-0.00004787,0.00005769,-0.01807711,-0.002782
 96,-0.07201819,0.00002204,0.00145983,-0.00028937,0.00032628,0.00003026
 ,-0.00014347,0.00041676,-0.00448321,0.00801693,0.00935910,0.04401353,-
 0.11289205,-0.00524000,-0.01418719,0.00475513,0.00800861,0.03059937,-0
 .01666299,0.00767721,0.03759942,0.55917064,0.00076987,-0.00799210,-0.0
 0293968,0.00026003,0.00038837,0.00101581,-0.00014699,0.00022465,-0.000
 10446,-0.00060955,-0.00000160,0.00039165,-0.00016445,0.00003984,-0.000
 08013,-0.03150363,0.00096896,-0.03719768,-0.00094680,0.00166470,-0.000
 37667,0.00038331,0.00002032,-0.00007711,0.00158375,0.00056044,-0.00045
 753,0.00097041,-0.00009598,0.01042912,0.00063622,0.00031971,0.00026408
 ,0.00033156,-0.00219737,0.00111759,-0.05169164,0.00183649,-0.03914387,
 0.07511734,0.00066106,-0.00139168,0.00076387,-0.00025121,0.00035940,-0
 .00011864,0.00005503,-0.00008492,0.00006052,-0.00011098,-0.00003382,-0
 .00000662,0.00001153,0.00002485,-0.00000804,-0.00362722,0.00567115,-0.
 00216347,-0.00000712,0.00015618,-0.00021265,0.00002586,-0.00003451,0.0
 0002089,-0.00023049,0.00150199,-0.00223915,0.00262465,0.00153295,0.029
 74096,0.00025701,0.00147752,-0.00057559,-0.00077741,-0.00425630,0.0031
 9062,0.00091932,-0.05611800,-0.01235019,0.00399200,0.05185449,0.002235
 82,-0.00504708,-0.00084326,-0.00033589,0.00081359,0.00107117,-0.000217
 35,0.00020831,-0.00028827,-0.00062640,-0.00015546,0.00022130,-0.000042
 55,0.00004272,-0.00005387,-0.01653575,0.00131500,0.00371820,-0.0007664
 3,0.00064562,-0.00011483,0.00032407,0.00014812,-0.00016885,-0.00077720
 ,0.00112973,0.00209486,0.00001564,-0.00293000,-0.01700258,0.00103710,0
 .00053952,0.00100280,0.00098729,0.00344994,-0.00012265,-0.03929010,-0.
 00953574,-0.27264853,0.05497027,0.01012337,0.29689052,-0.00088741,-0.0
 0588852,0.00278805,-0.00034325,0.00159024,0.00063813,-0.00022950,0.000
 06737,0.00005148,-0.00119377,-0.00014926,-0.00038171,0.00001073,0.0000
 0557,-0.00006278,-0.03700498,0.02920010,0.00843023,-0.00018970,0.00076
 215,-0.00080077,0.00003809,-0.00016135,0.00032814,0.00215190,-0.001969
 17,0.00099389,0.00636703,-0.00400147,-0.00409214,-0.00059267,0.0009275
 4,-0.00042625,0.00058128,0.00033781,-0.00047624,-0.08699638,0.07932043
 ,0.04215886,0.00501059,-0.00354202,-0.00097853,0.11327804,-0.00342425,
 -0.00057898,-0.00038009,0.00075841,-0.00015664,-0.00048196,-0.00013073
 ,0.00011376,0.00025473,0.00032641,0.00027079,-0.00014928,-0.00005437,-
 0.00003977,-0.00000738,0.00048453,0.00849205,0.00406423,0.00080134,0.0
 0027796,0.00037036,-0.00024469,-0.00024309,0.00022029,0.00146026,-0.00
 573889,0.00320976,0.01342976,-0.01530611,-0.01531618,-0.00112155,-0.00
 090074,0.00047743,0.00026143,0.00138556,0.00095598,0.08368131,-0.20886
 784,-0.08150773,0.00027157,-0.00065931,-0.00074767,-0.09649943,0.22195
 125,-0.00063519,0.00173739,-0.00070089,-0.00001732,-0.00001546,0.00036
 824,-0.00011322,0.00018893,-0.00012563,0.00012385,0.00003883,0.0000183
 2,-0.00002363,-0.00001865,-0.00000999,-0.00043697,0.00536094,0.0069527
 8,0.00004508,-0.00011797,-0.00000241,-0.00004731,0.00000195,-0.0000074
 4,-0.00101212,0.00385397,0.00017297,-0.00733119,0.01169235,0.00546133,
 0.00065022,0.00011331,0.00008066,-0.00048815,-0.00032118,0.00095711,0.
 04526770,-0.08532602,-0.09700104,0.01218862,-0.02622588,-0.01375601,-0
 .04817037,0.08903749,0.09759200\\0.00000199,-0.00000043,-0.00000318,-0
 .00000388,-0.00000254,0.00000241,-0.00000373,-0.00000287,0.00000143,0.
 00000044,-0.00000700,-0.00000092,-0.00000074,-0.00000791,-0.00000211,0
 .00000193,-0.00000113,-0.00000035,0.00000036,-0.00000233,0.00000113,0.
 00000129,-0.00000281,-0.00000329,-0.00000255,0.00000181,0.00000165,-0.
 00000083,0.00000520,0.00000139,-0.00000165,0.00000578,0.00000221,0.000
 00027,0.00000562,0.00000101,0.00000141,0.00000226,-0.00000059,0.000001
 56,0.00000196,-0.00000023,0.00000411,0.00000437,-0.00000056\\\@
 The archive entry for this job was punched.


 WE'RE IN THE POSITION OF A VISITOR FROM ANOTHER
 DIMENSION WHO COMES TO EARTH AND SEES A CHESS MATCH.
 ASSUMING HE KNOWS IT'S A GAME, HE'S GOT TWO PROBLEMS:
 FIRST, FIGURE OUT THE RULES, AND SECOND, FIGURE OUT HOW TO WIN.
 NINETY PERCENT OF SCIENCE (INCLUDING VIRTUALLY ALL OF CHEMISRY)
 IS IN THAT SECOND CATEGORY.  THEY'RE TRYING TO APPLY
 THE LAWS THAT ARE ALREADY KNOWN.

                     -- SHELDON GLASHOW, 1979
 Job cpu time:       0 days 10 hours 46 minutes 15.3 seconds.
 Elapsed time:       0 days  2 hours 42 minutes  0.5 seconds.
 File lengths (MBytes):  RWF=    179 Int=      0 D2E=      0 Chk=     11 Scr=      1
 Normal termination of Gaussian 16 at Thu Feb 15 04:38:44 2024.
