 Entering Gaussian System, Link 0=/opt/software/gaussian/g16.c01/g16
 Initial command:
 /opt/software/gaussian/g16.c01/l1.exe "/scratch/arhender/14840086/Gau-23619.inp" -scrdir="/scratch/arhender/14840086/"
 Entering Link 1 = /opt/software/gaussian/g16.c01/l1.exe PID=     23662.
  
 Copyright (c) 1988-2019, Gaussian, Inc.  All Rights Reserved.
  
 This is part of the Gaussian(R) 16 program.  It is based on
 the Gaussian(R) 09 system (copyright 2009, Gaussian, Inc.),
 the Gaussian(R) 03 system (copyright 2003, Gaussian, Inc.),
 the Gaussian(R) 98 system (copyright 1998, Gaussian, Inc.),
 the Gaussian(R) 94 system (copyright 1995, Gaussian, Inc.),
 the Gaussian 92(TM) system (copyright 1992, Gaussian, Inc.),
 the Gaussian 90(TM) system (copyright 1990, Gaussian, Inc.),
 the Gaussian 88(TM) system (copyright 1988, Gaussian, Inc.),
 the Gaussian 86(TM) system (copyright 1986, Carnegie Mellon
 University), and the Gaussian 82(TM) system (copyright 1983,
 Carnegie Mellon University). Gaussian is a federally registered
 trademark of Gaussian, Inc.
  
 This software contains proprietary and confidential information,
 including trade secrets, belonging to Gaussian, Inc.
  
 This software is provided under written license and may be
 used, copied, transmitted, or stored only in accord with that
 written license.
  
 The following legend is applicable only to US Government
 contracts under FAR:
  
                    RESTRICTED RIGHTS LEGEND
  
 Use, reproduction and disclosure by the US Government is
 subject to restrictions as set forth in subparagraphs (a)
 and (c) of the Commercial Computer Software - Restricted
 Rights clause in FAR 52.227-19.
  
 Gaussian, Inc.
 340 Quinnipiac St., Bldg. 40, Wallingford CT 06492
  
  
 ---------------------------------------------------------------
 Warning -- This program may not be used in any manner that
 competes with the business of Gaussian, Inc. or will provide
 assistance to any competitor of Gaussian, Inc.  The licensee
 of this program is prohibited from giving any competitor of
 Gaussian, Inc. access to this program.  By using this program,
 the user acknowledges that Gaussian, Inc. is engaged in the
 business of creating and licensing software in the field of
 computational chemistry and represents and warrants to the
 licensee that it is not a competitor of Gaussian, Inc. and that
 it will not use this program in any manner prohibited above.
 ---------------------------------------------------------------
  

 Cite this work as:
 Gaussian 16, Revision C.01,
 M. J. Frisch, G. W. Trucks, H. B. Schlegel, G. E. Scuseria, 
 M. A. Robb, J. R. Cheeseman, G. Scalmani, V. Barone, 
 G. A. Petersson, H. Nakatsuji, X. Li, M. Caricato, A. V. Marenich, 
 J. Bloino, B. G. Janesko, R. Gomperts, B. Mennucci, H. P. Hratchian, 
 J. V. Ortiz, A. F. Izmaylov, J. L. Sonnenberg, D. Williams-Young, 
 F. Ding, F. Lipparini, F. Egidi, J. Goings, B. Peng, A. Petrone, 
 T. Henderson, D. Ranasinghe, V. G. Zakrzewski, J. Gao, N. Rega, 
 G. Zheng, W. Liang, M. Hada, M. Ehara, K. Toyota, R. Fukuda, 
 J. Hasegawa, M. Ishida, T. Nakajima, Y. Honda, O. Kitao, H. Nakai, 
 T. Vreven, K. Throssell, J. A. Montgomery, Jr., J. E. Peralta, 
 F. Ogliaro, M. J. Bearpark, J. J. Heyd, E. N. Brothers, K. N. Kudin, 
 V. N. Staroverov, T. A. Keith, R. Kobayashi, J. Normand, 
 K. Raghavachari, A. P. Rendell, J. C. Burant, S. S. Iyengar, 
 J. Tomasi, M. Cossi, J. M. Millam, M. Klene, C. Adamo, R. Cammi, 
 J. W. Ochterski, R. L. Martin, K. Morokuma, O. Farkas, 
 J. B. Foresman, and D. J. Fox, Gaussian, Inc., Wallingford CT, 2019.
 
 ******************************************
 Gaussian 16:  ES64L-G16RevC.01  3-Jul-2019
                11-Oct-2023 
 ******************************************
 %chk=DeprotonatedSilicateTSAttempt.chk
 %mem=8GB
 %nprocs=16
 Will use up to   16 processors via shared memory.
 ----------------------------------------------------------------------
 # opt=(calcall,ts,noeigen) freq=noraman wb97xd/def2tzvpp geom=connecti
 vity
 ----------------------------------------------------------------------
 1/5=1,10=4,11=1,18=20,26=3,38=1,57=2/1,3;
 2/9=110,12=2,17=6,18=5,40=1/2;
 3/5=44,7=202,11=2,25=1,30=1,71=2,74=-58,140=1/1,2,3;
 4//1;
 5/5=2,38=5/2;
 8/6=4,10=90,11=11/1;
 11/6=1,8=1,9=11,15=111,16=1/1,2,10;
 10/6=1/2;
 6/7=2,8=2,9=2,10=2,18=1,28=1/1;
 7/10=1,25=1/1,2,3,16;
 1/5=1,10=4,11=1,18=20,26=3/3(3);
 2/9=110/2;
 7/8=1,9=1,25=1,44=-1/16;
 99//99;
 2/9=110/2;
 3/5=44,7=202,11=2,25=1,30=1,71=2,74=-58,140=1/1,2,3;
 4/5=5,16=3,69=1/1;
 5/5=2,38=5/2;
 8/6=4,10=90,11=11/1;
 11/6=1,8=1,9=11,15=111,16=1/1,2,10;
 10/6=1/2;
 7/10=1,25=1/1,2,3,16;
 1/5=1,10=4,11=1,18=20,26=3/3(-8);
 2/9=110/2;
 6/7=2,8=2,9=2,10=2,18=1,19=2,28=1/1;
 7/8=1,9=1,25=1,44=-1/16;
 99//99;
 ---------------------------------------------------------------------
 TS opt EGOH attack with ligand deprotonated on silicate equatorial OH
 ---------------------------------------------------------------------
 Symbolic Z-matrix:
 Charge = -1 Multiplicity = 1
 Si                    1.02457  -0.09695  -0.05163 
 O                     1.73088  -1.11166  -1.10252 
 O                     2.74914   1.03438   0.53744 
 H                     3.49332   0.62153   0.10003 
 O                     0.33211   1.26898  -0.65195 
 H                     0.99888   1.96068  -0.57967 
 O                     0.69048  -0.58851   1.46436 
 H                     1.39033  -0.27183   2.04135 
 C                    -1.96179  -1.02744   0.34821 
 H                    -1.62442  -1.53845   1.24469 
 H                    -2.75895  -1.59821  -0.12932 
 C                    -2.40852   0.39521   0.6414 
 H                    -1.69721   0.87459   1.31667 
 H                    -3.38179   0.36846   1.13373 
 O                    -0.84461  -1.01619  -0.56367 
 O                    -2.53422   1.1215   -0.56178 
 H                    -1.68523   1.54744  -0.72131 
 H                    -0.94014  -1.43169  -1.42381 
 

 GradGradGradGradGradGradGradGradGradGradGradGradGradGradGradGradGradGrad
 Berny optimization.
 Initialization pass.
                           ----------------------------
                           !    Initial Parameters    !
                           ! (Angstroms and Degrees)  !
 --------------------------                            --------------------------
 ! Name  Definition              Value          Derivative Info.                !
 --------------------------------------------------------------------------------
 ! R1    R(1,2)                  1.6226         calculate D2E/DX2 analytically  !
 ! R2    R(1,3)                  2.145          calculate D2E/DX2 analytically  !
 ! R3    R(1,5)                  1.6449         calculate D2E/DX2 analytically  !
 ! R4    R(1,7)                  1.6283         calculate D2E/DX2 analytically  !
 ! R5    R(1,15)                 2.145          calculate D2E/DX2 analytically  !
 ! R6    R(3,4)                  0.9569         calculate D2E/DX2 analytically  !
 ! R7    R(5,6)                  0.9635         calculate D2E/DX2 analytically  !
 ! R8    R(7,8)                  0.9607         calculate D2E/DX2 analytically  !
 ! R9    R(9,10)                 1.0856         calculate D2E/DX2 analytically  !
 ! R10   R(9,11)                 1.0905         calculate D2E/DX2 analytically  !
 ! R11   R(9,12)                 1.5197         calculate D2E/DX2 analytically  !
 ! R12   R(9,15)                 1.4421         calculate D2E/DX2 analytically  !
 ! R13   R(12,13)                1.0917         calculate D2E/DX2 analytically  !
 ! R14   R(12,14)                1.091          calculate D2E/DX2 analytically  !
 ! R15   R(12,16)                1.411          calculate D2E/DX2 analytically  !
 ! R16   R(15,18)                0.96           calculate D2E/DX2 analytically  !
 ! R17   R(16,17)                0.9631         calculate D2E/DX2 analytically  !
 ! A1    A(2,1,3)               99.0744         calculate D2E/DX2 analytically  !
 ! A2    A(2,1,5)              117.7866         calculate D2E/DX2 analytically  !
 ! A3    A(2,1,7)              120.2315         calculate D2E/DX2 analytically  !
 ! A4    A(2,1,15)              87.5193         calculate D2E/DX2 analytically  !
 ! A5    A(3,1,5)               90.0408         calculate D2E/DX2 analytically  !
 ! A6    A(3,1,7)               93.928          calculate D2E/DX2 analytically  !
 ! A7    A(5,1,7)              120.2712         calculate D2E/DX2 analytically  !
 ! A8    A(5,1,15)              84.3705         calculate D2E/DX2 analytically  !
 ! A9    A(7,1,15)              85.0711         calculate D2E/DX2 analytically  !
 ! A10   A(1,3,4)              105.7948         calculate D2E/DX2 analytically  !
 ! A11   A(1,5,6)              106.1084         calculate D2E/DX2 analytically  !
 ! A12   A(1,7,8)              108.0694         calculate D2E/DX2 analytically  !
 ! A13   A(10,9,11)            110.0221         calculate D2E/DX2 analytically  !
 ! A14   A(10,9,12)            111.881          calculate D2E/DX2 analytically  !
 ! A15   A(10,9,15)            106.5636         calculate D2E/DX2 analytically  !
 ! A16   A(11,9,12)            111.0736         calculate D2E/DX2 analytically  !
 ! A17   A(11,9,15)            107.0656         calculate D2E/DX2 analytically  !
 ! A18   A(12,9,15)            110.0238         calculate D2E/DX2 analytically  !
 ! A19   A(9,12,13)            109.8087         calculate D2E/DX2 analytically  !
 ! A20   A(9,12,14)            109.0467         calculate D2E/DX2 analytically  !
 ! A21   A(9,12,16)            110.0929         calculate D2E/DX2 analytically  !
 ! A22   A(13,12,14)           108.233          calculate D2E/DX2 analytically  !
 ! A23   A(13,12,16)           111.0676         calculate D2E/DX2 analytically  !
 ! A24   A(14,12,16)           108.5382         calculate D2E/DX2 analytically  !
 ! A25   A(1,15,9)             121.8339         calculate D2E/DX2 analytically  !
 ! A26   A(1,15,18)            119.083          calculate D2E/DX2 analytically  !
 ! A27   A(9,15,18)            119.083          calculate D2E/DX2 analytically  !
 ! A28   A(12,16,17)           106.8791         calculate D2E/DX2 analytically  !
 ! A29   L(3,1,15,2,-1)        186.5938         calculate D2E/DX2 analytically  !
 ! A30   L(3,1,15,2,-2)        182.8153         calculate D2E/DX2 analytically  !
 ! D1    D(2,1,3,4)             -4.44           calculate D2E/DX2 analytically  !
 ! D2    D(5,1,3,4)           -122.6174         calculate D2E/DX2 analytically  !
 ! D3    D(7,1,3,4)            117.0294         calculate D2E/DX2 analytically  !
 ! D4    D(2,1,5,6)            -94.5188         calculate D2E/DX2 analytically  !
 ! D5    D(3,1,5,6)              5.7723         calculate D2E/DX2 analytically  !
 ! D6    D(7,1,5,6)            100.3456         calculate D2E/DX2 analytically  !
 ! D7    D(15,1,5,6)          -178.7162         calculate D2E/DX2 analytically  !
 ! D8    D(2,1,7,8)             98.5299         calculate D2E/DX2 analytically  !
 ! D9    D(3,1,7,8)             -4.3546         calculate D2E/DX2 analytically  !
 ! D10   D(5,1,7,8)            -96.699          calculate D2E/DX2 analytically  !
 ! D11   D(15,1,7,8)          -177.2401         calculate D2E/DX2 analytically  !
 ! D12   D(2,1,15,9)           154.2782         calculate D2E/DX2 analytically  !
 ! D13   D(2,1,15,18)          -25.7218         calculate D2E/DX2 analytically  !
 ! D14   D(5,1,15,9)           -87.4829         calculate D2E/DX2 analytically  !
 ! D15   D(5,1,15,18)           92.5171         calculate D2E/DX2 analytically  !
 ! D16   D(7,1,15,9)            33.6428         calculate D2E/DX2 analytically  !
 ! D17   D(7,1,15,18)         -146.3572         calculate D2E/DX2 analytically  !
 ! D18   D(10,9,12,13)          43.5407         calculate D2E/DX2 analytically  !
 ! D19   D(10,9,12,14)         -74.8952         calculate D2E/DX2 analytically  !
 ! D20   D(10,9,12,16)         166.129          calculate D2E/DX2 analytically  !
 ! D21   D(11,9,12,13)         166.919          calculate D2E/DX2 analytically  !
 ! D22   D(11,9,12,14)          48.4831         calculate D2E/DX2 analytically  !
 ! D23   D(11,9,12,16)         -70.4927         calculate D2E/DX2 analytically  !
 ! D24   D(15,9,12,13)         -74.7107         calculate D2E/DX2 analytically  !
 ! D25   D(15,9,12,14)         166.8534         calculate D2E/DX2 analytically  !
 ! D26   D(15,9,12,16)          47.8776         calculate D2E/DX2 analytically  !
 ! D27   D(10,9,15,1)          -59.2334         calculate D2E/DX2 analytically  !
 ! D28   D(10,9,15,18)         120.7666         calculate D2E/DX2 analytically  !
 ! D29   D(11,9,15,1)         -176.941          calculate D2E/DX2 analytically  !
 ! D30   D(11,9,15,18)           3.059          calculate D2E/DX2 analytically  !
 ! D31   D(12,9,15,1)           62.2482         calculate D2E/DX2 analytically  !
 ! D32   D(12,9,15,18)        -117.7518         calculate D2E/DX2 analytically  !
 ! D33   D(9,12,16,17)         -91.4774         calculate D2E/DX2 analytically  !
 ! D34   D(13,12,16,17)         30.3664         calculate D2E/DX2 analytically  !
 ! D35   D(14,12,16,17)        149.2363         calculate D2E/DX2 analytically  !
 --------------------------------------------------------------------------------
 Trust Radius=3.00D-01 FncErr=1.00D-07 GrdErr=1.00D-06 EigMax=2.50D+02 EigMin=1.00D-04
 Number of steps in this run=     92 maximum allowed number of steps=    108.
 Search for a saddle point of order  1.
 GradGradGradGradGradGradGradGradGradGradGradGradGradGradGradGradGradGrad

                          Input orientation:                          
 ---------------------------------------------------------------------
 Center     Atomic      Atomic             Coordinates (Angstroms)
 Number     Number       Type             X           Y           Z
 ---------------------------------------------------------------------
      1         14           0        1.024572   -0.096948   -0.051630
      2          8           0        1.730880   -1.111656   -1.102517
      3          8           0        2.749137    1.034380    0.537435
      4          1           0        3.493315    0.621534    0.100033
      5          8           0        0.332109    1.268979   -0.651952
      6          1           0        0.998878    1.960681   -0.579666
      7          8           0        0.690480   -0.588512    1.464362
      8          1           0        1.390332   -0.271834    2.041346
      9          6           0       -1.961790   -1.027441    0.348215
     10          1           0       -1.624424   -1.538448    1.244692
     11          1           0       -2.758946   -1.598215   -0.129317
     12          6           0       -2.408519    0.395211    0.641400
     13          1           0       -1.697205    0.874593    1.316674
     14          1           0       -3.381786    0.368465    1.133731
     15          8           0       -0.844607   -1.016193   -0.563670
     16          8           0       -2.534218    1.121502   -0.561776
     17          1           0       -1.685234    1.547435   -0.721315
     18          1           0       -0.940138   -1.431685   -1.423809
 ---------------------------------------------------------------------
                    Distance matrix (angstroms):
                    1          2          3          4          5
     1  Si   0.000000
     2  O    1.622611   0.000000
     3  O    2.145000   2.886479   0.000000
     4  H    2.575638   2.748865   0.956851   0.000000
     5  O    1.644886   2.797676   2.704016   3.313291   0.000000
     6  H    2.124458   3.201321   2.273622   2.911619   0.963462
     7  O    1.628338   2.818683   2.780475   3.343873   2.838571
     8  H    2.131880   3.271872   2.411285   2.998223   3.278383
     9  C    3.153418   3.968315   5.145847   5.704286   3.396446
    10  H    3.282614   4.116990   5.123251   5.671599   3.912406
    11  H    4.071222   4.619783   6.141180   6.638574   4.248360
    12  C    3.536754   4.737776   5.198150   5.930932   3.153929
    13  H    3.197534   4.642137   4.516935   5.337205   2.854670
    14  H    4.586685   5.773293   6.195743   6.956982   4.218127
    15  O    2.145000   2.632983   4.281621   4.684039   2.571859
    16  O    3.796031   4.844631   5.397193   6.084334   2.871534
    17  H    3.239680   4.345793   4.638030   5.324404   2.037651
    18  H    2.743079   2.709240   4.851670   5.117940   3.083498
                    6          7          8          9         10
     6  H    0.000000
     7  O    3.282004   0.000000
     8  H    3.465122   0.960723   0.000000
     9  C    4.307596   2.910838   3.830712   0.000000
    10  H    4.738555   2.511855   3.365669   1.085640   0.000000
    11  H    5.195170   3.931648   4.866989   1.090541   1.782866
    12  C    3.943609   3.353920   4.103178   1.519692   2.172051
    13  H    3.470527   2.804199   3.372289   2.150733   2.415212
    14  H    4.965994   4.196245   4.899680   2.140555   2.595563
    15  O    3.501495   2.579208   3.512141   1.442136   2.037409
    16  O    3.631433   4.174693   4.911183   2.402854   3.341614
    17  H    2.719428   3.870849   4.516763   2.801850   3.659448
    18  H    3.997563   3.422190   4.334010   2.085007   2.756908
                   11         12         13         14         15
    11  H    0.000000
    12  C    2.165768   0.000000
    13  H    3.054990   1.091682   0.000000
    14  H    2.418894   1.091033   1.768459   0.000000
    15  O    2.047463   2.426948   2.799587   3.351972   0.000000
    16  O    2.763038   1.411004   2.071262   2.039652   2.724798
    17  H    3.376157   1.925553   2.146219   2.776590   2.702535
    18  H    2.238639   3.123905   3.660918   3.967769   0.960000
                   16         17         18
    16  O    0.000000
    17  H    0.963144   0.000000
    18  H    3.130967   3.150210   0.000000
 Stoichiometry    C2H9O6Si(1-)
 Framework group  C1[X(C2H9O6Si)]
 Deg. of freedom    48
 Full point group                 C1      NOp   1
 Largest Abelian subgroup         C1      NOp   1
 Largest concise Abelian subgroup C1      NOp   1
                         Standard orientation:                         
 ---------------------------------------------------------------------
 Center     Atomic      Atomic             Coordinates (Angstroms)
 Number     Number       Type             X           Y           Z
 ---------------------------------------------------------------------
      1         14           0        1.035203   -0.123616   -0.079439
      2          8           0        1.716587   -1.093143   -1.187861
      3          8           0        2.783162    0.945412    0.555261
      4          1           0        3.517054    0.543691    0.090947
      5          8           0        0.362566    1.283770   -0.601429
      6          1           0        1.041752    1.959222   -0.497847
      7          8           0        0.702903   -0.688990    1.411001
      8          1           0        1.412063   -0.415265    1.998500
      9          6           0       -1.964123   -1.022989    0.293684
     10          1           0       -1.629628   -1.586411    1.159295
     11          1           0       -2.774320   -1.554025   -0.207176
     12          6           0       -2.384016    0.389546    0.665032
     13          1           0       -1.659896    0.820324    1.359186
     14          1           0       -3.354236    0.353348    1.162742
     15          8           0       -0.853130   -0.982503   -0.624909
     16          8           0       -2.505215    1.180551   -0.497101
     17          1           0       -1.650047    1.599817   -0.640452
     18          1           0       -0.961717   -1.350188   -1.505032
 ---------------------------------------------------------------------
 Rotational constants (GHZ):           2.2194985           0.8795284           0.8209970
 Standard basis: def2TZVPP (5D, 7F)
 There are   471 symmetry adapted cartesian basis functions of A   symmetry.
 There are   416 symmetry adapted basis functions of A   symmetry.
   416 basis functions,   630 primitive gaussians,   471 cartesian basis functions
    42 alpha electrons       42 beta electrons
       nuclear repulsion energy       634.2563114722 Hartrees.
 NAtoms=   18 NActive=   18 NUniq=   18 SFac= 1.00D+00 NAtFMM=   60 NAOKFM=F Big=F
 Integral buffers will be    131072 words long.
 Raffenetti 2 integral format.
 Two-electron integral symmetry is turned on.
 Nuclear repulsion after empirical dispersion term =      634.2463282875 Hartrees.
 One-electron integrals computed using PRISM.
   1 Symmetry operations used in ECPInt.
 ECPInt:  NShTT=   12246 NPrTT=   33908 LenC2=   11681 LenP2D=   25338.
 LDataN:  DoStor=T MaxTD1= 6 Len=  172
 NBasis=   416 RedAO= T EigKep=  2.11D-04  NBF=   416
 NBsUse=   416 1.00D-06 EigRej= -1.00D+00 NBFU=   416
 ExpMin= 7.01D-02 ExpMax= 4.48D+04 ExpMxC= 1.53D+03 IAcc=3 IRadAn=         5 AccDes= 0.00D+00
 Harris functional with IExCor= 4639 and IRadAn=       5 diagonalized for initial guess.
 HarFok:  IExCor= 4639 AccDes= 0.00D+00 IRadAn=         5 IDoV= 1 UseB2=F ITyADJ=14
 ICtDFT=  3500011 ScaDFX=  1.000000  1.000000  1.000000  1.000000
 FoFCou: FMM=F IPFlag=           0 FMFlag=      100000 FMFlg1=           0
         NFxFlg=           0 DoJE=T BraDBF=F KetDBF=T FulRan=T
         wScrn=  0.000000 ICntrl=       500 IOpCl=  0 I1Cent=   200000004 NGrid=           0
         NMat0=    1 NMatS0=      1 NMatT0=    0 NMatD0=    1 NMtDS0=    0 NMtDT0=    0
 Petite list used in FoFCou.
 Requested convergence on RMS density matrix=1.00D-08 within 128 cycles.
 Requested convergence on MAX density matrix=1.00D-06.
 Requested convergence on             energy=1.00D-06.
 No special actions if energy rises.
 Integral accuracy reduced to 1.0D-05 until final iterations.
 Initial convergence to 1.0D-05 achieved.  Increase integral accuracy.
 SCF Done:  E(RwB97XD) =  -822.723387897     A.U. after   15 cycles
            NFock= 15  Conv=0.72D-08     -V/T= 2.0037
 DoSCS=F DFT=T ScalE2(SS,OS)=  1.000000  1.000000
 Range of M.O.s used for correlation:     1   416
 NBasis=   416 NAE=    42 NBE=    42 NFC=     0 NFV=     0
 NROrb=    416 NOA=    42 NOB=    42 NVA=   374 NVB=   374

 **** Warning!!: The largest alpha MO coefficient is  0.14442409D+02

   1 Symmetry operations used in ECPInt.
 ECPInt:  NShTT=   12246 NPrTT=   33908 LenC2=   11681 LenP2D=   25338.
 LDataN:  DoStor=T MaxTD1= 7 Len=  274
 Number of processors reduced to  12 by ecpmxn.
 Symmetrizing basis deriv contribution to polar:
 IMax=3 JMax=2 DiffMx= 0.00D+00
 G2DrvN: will do    19 centers at a time, making    1 passes.
 Calling FoFCou, ICntrl=  3107 FMM=F I1Cent=   0 AccDes= 0.00D+00.
 End of G2Drv F.D. properties file   721 does not exist.
 End of G2Drv F.D. properties file   722 does not exist.
 End of G2Drv F.D. properties file   788 does not exist.
          IDoAtm=111111111111111111
          Differentiating once with respect to electric field.
                with respect to dipole field.
          Differentiating once with respect to nuclear coordinates.
 CalDSu exits because no D1Ps are significant.
          There are    57 degrees of freedom in the 1st order CPHF.  IDoFFX=6 NUNeed=     3.
     54 vectors produced by pass  0 Test12= 2.76D-14 1.75D-09 XBig12= 3.08D+01 1.18D+00.
 AX will form    54 AO Fock derivatives at one time.
     54 vectors produced by pass  1 Test12= 2.76D-14 1.75D-09 XBig12= 2.43D+00 2.62D-01.
     54 vectors produced by pass  2 Test12= 2.76D-14 1.75D-09 XBig12= 7.66D-02 5.29D-02.
     54 vectors produced by pass  3 Test12= 2.76D-14 1.75D-09 XBig12= 1.35D-03 6.24D-03.
     54 vectors produced by pass  4 Test12= 2.76D-14 1.75D-09 XBig12= 1.40D-05 4.88D-04.
     54 vectors produced by pass  5 Test12= 2.76D-14 1.75D-09 XBig12= 1.23D-07 4.14D-05.
     54 vectors produced by pass  6 Test12= 2.76D-14 1.75D-09 XBig12= 1.00D-09 4.20D-06.
     23 vectors produced by pass  7 Test12= 2.76D-14 1.75D-09 XBig12= 7.26D-12 2.84D-07.
      3 vectors produced by pass  8 Test12= 2.76D-14 1.75D-09 XBig12= 4.49D-14 2.77D-08.
      2 vectors produced by pass  9 Test12= 2.76D-14 1.75D-09 XBig12= 2.89D-16 2.43D-09.
 InvSVY:  IOpt=1 It=  1 EMax= 3.55D-15
 Solved reduced A of dimension   406 with    57 vectors.
 Isotropic polarizability for W=    0.000000       80.19 Bohr**3.
 End of Minotr F.D. properties file   721 does not exist.
 End of Minotr F.D. properties file   722 does not exist.
 End of Minotr F.D. properties file   788 does not exist.

 **********************************************************************

            Population analysis using the SCF Density.

 **********************************************************************

 Orbital symmetries:
       Occupied  (A) (A) (A) (A) (A) (A) (A) (A) (A) (A) (A) (A)
                 (A) (A) (A) (A) (A) (A) (A) (A) (A) (A) (A) (A)
                 (A) (A) (A) (A) (A) (A) (A) (A) (A) (A) (A) (A)
                 (A) (A) (A) (A) (A) (A)
       Virtual   (A) (A) (A) (A) (A) (A) (A) (A) (A) (A) (A) (A)
                 (A) (A) (A) (A) (A) (A) (A) (A) (A) (A) (A) (A)
                 (A) (A) (A) (A) (A) (A) (A) (A) (A) (A) (A) (A)
                 (A) (A) (A) (A) (A) (A) (A) (A) (A) (A) (A) (A)
                 (A) (A) (A) (A) (A) (A) (A) (A) (A) (A) (A) (A)
                 (A) (A) (A) (A) (A) (A) (A) (A) (A) (A) (A) (A)
                 (A) (A) (A) (A) (A) (A) (A) (A) (A) (A) (A) (A)
                 (A) (A) (A) (A) (A) (A) (A) (A) (A) (A) (A) (A)
                 (A) (A) (A) (A) (A) (A) (A) (A) (A) (A) (A) (A)
                 (A) (A) (A) (A) (A) (A) (A) (A) (A) (A) (A) (A)
                 (A) (A) (A) (A) (A) (A) (A) (A) (A) (A) (A) (A)
                 (A) (A) (A) (A) (A) (A) (A) (A) (A) (A) (A) (A)
                 (A) (A) (A) (A) (A) (A) (A) (A) (A) (A) (A) (A)
                 (A) (A) (A) (A) (A) (A) (A) (A) (A) (A) (A) (A)
                 (A) (A) (A) (A) (A) (A) (A) (A) (A) (A) (A) (A)
                 (A) (A) (A) (A) (A) (A) (A) (A) (A) (A) (A) (A)
                 (A) (A) (A) (A) (A) (A) (A) (A) (A) (A) (A) (A)
                 (A) (A) (A) (A) (A) (A) (A) (A) (A) (A) (A) (A)
                 (A) (A) (A) (A) (A) (A) (A) (A) (A) (A) (A) (A)
                 (A) (A) (A) (A) (A) (A) (A) (A) (A) (A) (A) (A)
                 (A) (A) (A) (A) (A) (A) (A) (A) (A) (A) (A) (A)
                 (A) (A) (A) (A) (A) (A) (A) (A) (A) (A) (A) (A)
                 (A) (A) (A) (A) (A) (A) (A) (A) (A) (A) (A) (A)
                 (A) (A) (A) (A) (A) (A) (A) (A) (A) (A) (A) (A)
                 (A) (A) (A) (A) (A) (A) (A) (A) (A) (A) (A) (A)
                 (A) (A) (A) (A) (A) (A) (A) (A) (A) (A) (A) (A)
                 (A) (A) (A) (A) (A) (A) (A) (A) (A) (A) (A) (A)
                 (A) (A) (A) (A) (A) (A) (A) (A) (A) (A) (A) (A)
                 (A) (A) (A) (A) (A) (A) (A) (A) (A) (A) (A) (A)
                 (A) (A) (A) (A) (A) (A) (A) (A) (A) (A) (A) (A)
                 (A) (A) (A) (A) (A) (A) (A) (A) (A) (A) (A) (A)
                 (A) (A)
 The electronic state is 1-A.
 Alpha  occ. eigenvalues --  -66.11185 -19.14664 -19.11934 -19.08271 -19.08217
 Alpha  occ. eigenvalues --  -18.99551 -18.93966 -10.22072 -10.21386  -5.22499
 Alpha  occ. eigenvalues --   -3.57310  -3.56968  -3.56649  -1.02332  -0.99397
 Alpha  occ. eigenvalues --   -0.95080  -0.93508  -0.81518  -0.74122  -0.72806
 Alpha  occ. eigenvalues --   -0.60526  -0.52477  -0.48361  -0.46821  -0.44651
 Alpha  occ. eigenvalues --   -0.41741  -0.40213  -0.39000  -0.36475  -0.33617
 Alpha  occ. eigenvalues --   -0.31062  -0.29497  -0.29225  -0.27788  -0.27156
 Alpha  occ. eigenvalues --   -0.25160  -0.23851  -0.20236  -0.16985  -0.15633
 Alpha  occ. eigenvalues --   -0.11385  -0.10659
 Alpha virt. eigenvalues --    0.21851   0.24685   0.24749   0.27347   0.29186
 Alpha virt. eigenvalues --    0.29710   0.31115   0.31206   0.33438   0.34874
 Alpha virt. eigenvalues --    0.36521   0.38359   0.39006   0.39224   0.40980
 Alpha virt. eigenvalues --    0.41573   0.44247   0.46698   0.48112   0.50166
 Alpha virt. eigenvalues --    0.51547   0.52991   0.53510   0.54444   0.55535
 Alpha virt. eigenvalues --    0.55897   0.55946   0.57221   0.58828   0.60496
 Alpha virt. eigenvalues --    0.61228   0.62986   0.63914   0.64473   0.65152
 Alpha virt. eigenvalues --    0.65948   0.67506   0.69525   0.69641   0.70790
 Alpha virt. eigenvalues --    0.71749   0.72923   0.74623   0.75070   0.76702
 Alpha virt. eigenvalues --    0.78895   0.79748   0.80547   0.81462   0.82293
 Alpha virt. eigenvalues --    0.83059   0.84969   0.86051   0.86961   0.87736
 Alpha virt. eigenvalues --    0.88057   0.90171   0.90614   0.93575   0.95719
 Alpha virt. eigenvalues --    0.97858   0.98773   1.01818   1.02192   1.03564
 Alpha virt. eigenvalues --    1.04307   1.05788   1.07432   1.08416   1.10853
 Alpha virt. eigenvalues --    1.11836   1.13016   1.15821   1.17052   1.17401
 Alpha virt. eigenvalues --    1.18654   1.20458   1.21090   1.22884   1.23851
 Alpha virt. eigenvalues --    1.25335   1.26549   1.28125   1.30601   1.32322
 Alpha virt. eigenvalues --    1.32925   1.34581   1.35713   1.38395   1.39544
 Alpha virt. eigenvalues --    1.41371   1.43719   1.44787   1.45666   1.46970
 Alpha virt. eigenvalues --    1.49033   1.50542   1.51558   1.52495   1.53497
 Alpha virt. eigenvalues --    1.54222   1.57414   1.60023   1.60379   1.61679
 Alpha virt. eigenvalues --    1.62156   1.64507   1.66546   1.68717   1.69215
 Alpha virt. eigenvalues --    1.70338   1.72663   1.74696   1.76656   1.78578
 Alpha virt. eigenvalues --    1.80373   1.84972   1.89838   1.92709   1.94011
 Alpha virt. eigenvalues --    1.96426   1.97588   2.01327   2.03738   2.07235
 Alpha virt. eigenvalues --    2.08147   2.09007   2.10210   2.11852   2.14006
 Alpha virt. eigenvalues --    2.14779   2.16743   2.17647   2.20448   2.21951
 Alpha virt. eigenvalues --    2.23805   2.26312   2.27562   2.29947   2.31514
 Alpha virt. eigenvalues --    2.31981   2.33741   2.35574   2.36943   2.38321
 Alpha virt. eigenvalues --    2.40920   2.41458   2.45095   2.46647   2.49728
 Alpha virt. eigenvalues --    2.50681   2.55341   2.55844   2.56336   2.62890
 Alpha virt. eigenvalues --    2.68254   2.69904   2.72133   2.74434   2.78844
 Alpha virt. eigenvalues --    2.80644   2.82854   2.85812   2.86616   2.88893
 Alpha virt. eigenvalues --    2.92344   2.95621   2.96804   2.97703   3.01154
 Alpha virt. eigenvalues --    3.02639   3.05692   3.09638   3.13279   3.14050
 Alpha virt. eigenvalues --    3.15448   3.16962   3.19359   3.22611   3.24915
 Alpha virt. eigenvalues --    3.26190   3.26566   3.28549   3.30360   3.32185
 Alpha virt. eigenvalues --    3.34545   3.35732   3.37201   3.39141   3.42104
 Alpha virt. eigenvalues --    3.42876   3.45466   3.46311   3.47990   3.51013
 Alpha virt. eigenvalues --    3.52615   3.53788   3.54616   3.57249   3.58150
 Alpha virt. eigenvalues --    3.58340   3.59122   3.59992   3.61886   3.63967
 Alpha virt. eigenvalues --    3.65783   3.67323   3.68756   3.70198   3.74448
 Alpha virt. eigenvalues --    3.76414   3.77527   3.78866   3.80512   3.83226
 Alpha virt. eigenvalues --    3.84955   3.88195   3.88858   3.90595   3.91832
 Alpha virt. eigenvalues --    3.92761   3.96722   3.97715   4.00913   4.01589
 Alpha virt. eigenvalues --    4.02244   4.05862   4.07120   4.10721   4.11989
 Alpha virt. eigenvalues --    4.12728   4.15406   4.17499   4.19734   4.20774
 Alpha virt. eigenvalues --    4.22371   4.22876   4.25196   4.26411   4.29644
 Alpha virt. eigenvalues --    4.31973   4.33277   4.34821   4.36070   4.37507
 Alpha virt. eigenvalues --    4.38935   4.39919   4.41125   4.43394   4.44301
 Alpha virt. eigenvalues --    4.45255   4.47208   4.49401   4.51793   4.53310
 Alpha virt. eigenvalues --    4.56929   4.57130   4.60378   4.62556   4.66391
 Alpha virt. eigenvalues --    4.77015   4.79923   4.81836   4.82990   4.89909
 Alpha virt. eigenvalues --    4.92420   4.93491   4.99439   5.00552   5.02039
 Alpha virt. eigenvalues --    5.03700   5.06401   5.07613   5.12933   5.15071
 Alpha virt. eigenvalues --    5.19392   5.20773   5.24060   5.25474   5.26061
 Alpha virt. eigenvalues --    5.30481   5.33084   5.36587   5.45892   5.49239
 Alpha virt. eigenvalues --    5.50938   5.51677   5.53929   5.55185   5.55530
 Alpha virt. eigenvalues --    5.56048   5.56636   5.57210   5.60648   5.61355
 Alpha virt. eigenvalues --    5.62681   5.64484   5.67641   5.70279   5.72038
 Alpha virt. eigenvalues --    5.73264   5.75771   5.75949   5.76979   5.77719
 Alpha virt. eigenvalues --    5.79524   5.82183   5.85004   5.90166   5.90880
 Alpha virt. eigenvalues --    5.93675   5.96562   5.97675   6.12795   6.17002
 Alpha virt. eigenvalues --    6.27576   6.37182   6.63889   6.65899   6.70252
 Alpha virt. eigenvalues --    6.71265   6.73135   6.74414   6.75568   6.75818
 Alpha virt. eigenvalues --    6.78633   6.80782   6.81590   6.83664   6.87608
 Alpha virt. eigenvalues --    6.88069   6.88793   6.90637   6.91725   6.92685
 Alpha virt. eigenvalues --    6.94696   6.96302   6.97629   6.98822   6.99415
 Alpha virt. eigenvalues --    7.00892   7.01818   7.03272   7.04028   7.08440
 Alpha virt. eigenvalues --    7.11267   7.13389   7.14074   7.18894   7.25893
 Alpha virt. eigenvalues --    7.28330   7.31510   7.35628   7.43920   7.49692
 Alpha virt. eigenvalues --    7.51702   7.54590   7.58802   7.60889   7.65062
 Alpha virt. eigenvalues --    7.71450   7.73385   7.75959   7.95192   7.97101
 Alpha virt. eigenvalues --   12.80384  23.48656  23.60200  43.90711  43.94339
 Alpha virt. eigenvalues --   44.07265  44.25055  44.27546  44.39180
          Condensed to atoms (all electrons):
               1          2          3          4          5          6
     1  Si  11.557140   0.740207   0.239905  -0.032026   0.301648  -0.027986
     2  O    0.740207   8.223561  -0.041691   0.007745  -0.044453  -0.002956
     3  O    0.239905  -0.041691   8.304772   0.301024  -0.040629   0.028090
     4  H   -0.032026   0.007745   0.301024   0.542162   0.002745  -0.000829
     5  O    0.301648  -0.044453  -0.040629   0.002745   7.954995   0.315469
     6  H   -0.027986  -0.002956   0.028090  -0.000829   0.315469   0.499320
     7  O    0.323438  -0.040531  -0.036158   0.001912  -0.031846  -0.000054
     8  H   -0.025058  -0.002450   0.022569  -0.000463  -0.000649  -0.001085
     9  C   -0.019612  -0.001019  -0.000135   0.000002  -0.006434   0.000095
    10  H   -0.007815   0.000492   0.000082  -0.000012  -0.000035  -0.000040
    11  H    0.002039  -0.000396   0.000003   0.000000  -0.000142   0.000023
    12  C   -0.003603  -0.000561  -0.000113   0.000011   0.009600  -0.001133
    13  H   -0.002869  -0.000335   0.000210  -0.000004   0.000823   0.000369
    14  H    0.000200  -0.000009   0.000000   0.000000   0.000444  -0.000028
    15  O    0.117561  -0.054323   0.000379   0.000109  -0.023651   0.001719
    16  O    0.001910  -0.000016  -0.000006   0.000001  -0.018692   0.000699
    17  H   -0.003787  -0.000057   0.000148  -0.000017   0.039034  -0.001872
    18  H    0.004262   0.023542   0.000210  -0.000066   0.000289  -0.000185
               7          8          9         10         11         12
     1  Si   0.323438  -0.025058  -0.019612  -0.007815   0.002039  -0.003603
     2  O   -0.040531  -0.002450  -0.001019   0.000492  -0.000396  -0.000561
     3  O   -0.036158   0.022569  -0.000135   0.000082   0.000003  -0.000113
     4  H    0.001912  -0.000463   0.000002  -0.000012   0.000000   0.000011
     5  O   -0.031846  -0.000649  -0.006434  -0.000035  -0.000142   0.009600
     6  H   -0.000054  -0.001085   0.000095  -0.000040   0.000023  -0.001133
     7  O    7.895833   0.320163   0.010929   0.010991   0.001257  -0.022300
     8  H    0.320163   0.513458  -0.003719   0.000152   0.000002   0.001993
     9  C    0.010929  -0.003719   4.889226   0.433060   0.383359   0.224268
    10  H    0.010991   0.000152   0.433060   0.599506  -0.029633  -0.063039
    11  H    0.001257   0.000002   0.383359  -0.029633   0.644544  -0.023729
    12  C   -0.022300   0.001993   0.224268  -0.063039  -0.023729   4.837366
    13  H    0.013992  -0.000519  -0.051448  -0.001738   0.009106   0.427575
    14  H    0.000144  -0.000016  -0.036251   0.008368  -0.011816   0.392187
    15  O   -0.020650   0.001873   0.250495  -0.042054  -0.024978  -0.077167
    16  O    0.000362   0.000016  -0.062478   0.006169   0.002858   0.268784
    17  H   -0.000008  -0.000066   0.003014  -0.000270  -0.001093  -0.040222
    18  H    0.001403  -0.000048  -0.007179   0.005302  -0.016630   0.000044
              13         14         15         16         17         18
     1  Si  -0.002869   0.000200   0.117561   0.001910  -0.003787   0.004262
     2  O   -0.000335  -0.000009  -0.054323  -0.000016  -0.000057   0.023542
     3  O    0.000210   0.000000   0.000379  -0.000006   0.000148   0.000210
     4  H   -0.000004   0.000000   0.000109   0.000001  -0.000017  -0.000066
     5  O    0.000823   0.000444  -0.023651  -0.018692   0.039034   0.000289
     6  H    0.000369  -0.000028   0.001719   0.000699  -0.001872  -0.000185
     7  O    0.013992   0.000144  -0.020650   0.000362  -0.000008   0.001403
     8  H   -0.000519  -0.000016   0.001873   0.000016  -0.000066  -0.000048
     9  C   -0.051448  -0.036251   0.250495  -0.062478   0.003014  -0.007179
    10  H   -0.001738   0.008368  -0.042054   0.006169  -0.000270   0.005302
    11  H    0.009106  -0.011816  -0.024978   0.002858  -0.001093  -0.016630
    12  C    0.427575   0.392187  -0.077167   0.268784  -0.040222   0.000044
    13  H    0.608265  -0.031319   0.000749  -0.045929  -0.010967  -0.000246
    14  H   -0.031319   0.650273   0.005060  -0.031884   0.006973  -0.000283
    15  O    0.000749   0.005060   7.788017   0.006143   0.002694   0.284550
    16  O   -0.045929  -0.031884   0.006143   7.949049   0.347919   0.000969
    17  H   -0.010967   0.006973   0.002694   0.347919   0.430170  -0.000253
    18  H   -0.000246  -0.000283   0.284550   0.000969  -0.000253   0.536006
 Mulliken charges:
               1
     1  Si   0.834445
     2  O   -0.806750
     3  O   -0.778660
     4  H    0.177706
     5  O   -0.458519
     6  H    0.190386
     7  O   -0.428877
     8  H    0.173848
     9  C   -0.006172
    10  H    0.080513
    11  H    0.065225
    12  C    0.070038
    13  H    0.084285
    14  H    0.047959
    15  O   -0.216527
    16  O   -0.425873
    17  H    0.228661
    18  H    0.168313
 Sum of Mulliken charges =  -1.00000
 Mulliken charges with hydrogens summed into heavy atoms:
               1
     1  Si   0.834445
     2  O   -0.806750
     3  O   -0.600954
     5  O   -0.268133
     7  O   -0.255029
     9  C    0.139566
    12  C    0.202282
    15  O   -0.048214
    16  O   -0.197213
 APT charges:
               1
     1  Si   2.159163
     2  O   -1.092156
     3  O   -0.970080
     4  H    0.171756
     5  O   -0.919383
     6  H    0.291751
     7  O   -0.883102
     8  H    0.290890
     9  C    0.416851
    10  H   -0.008856
    11  H   -0.071704
    12  C    0.419195
    13  H   -0.018808
    14  H   -0.061379
    15  O   -0.686289
    16  O   -0.674948
    17  H    0.361458
    18  H    0.275640
 Sum of APT charges =  -1.00000
 APT charges with hydrogens summed into heavy atoms:
               1
     1  Si   2.159163
     2  O   -1.092156
     3  O   -0.798323
     5  O   -0.627632
     7  O   -0.592211
     9  C    0.336290
    12  C    0.339009
    15  O   -0.410649
    16  O   -0.313490
 Electronic spatial extent (au):  <R**2>=           1556.0457
 Charge=             -1.0000 electrons
 Dipole moment (field-independent basis, Debye):
    X=             -7.8889    Y=              0.1944    Z=              2.5789  Tot=              8.3020
 Quadrupole moment (field-independent basis, Debye-Ang):
   XX=            -87.1460   YY=            -69.4667   ZZ=            -67.3129
   XY=              7.5255   XZ=              1.8973   YZ=             -3.1230
 Traceless Quadrupole moment (field-independent basis, Debye-Ang):
   XX=            -12.5041   YY=              5.1752   ZZ=              7.3290
   XY=              7.5255   XZ=              1.8973   YZ=             -3.1230
 Octapole moment (field-independent basis, Debye-Ang**2):
  XXX=            -20.1308  YYY=             11.3557  ZZZ=              5.7574  XYY=            -15.1703
  XXY=            -22.6536  XXZ=              8.6837  XZZ=            -13.1595  YZZ=              1.7021
  YYZ=             -2.7485  XYZ=            -22.2562
 Hexadecapole moment (field-independent basis, Debye-Ang**3):
 XXXX=          -1393.2396 YYYY=           -386.5424 ZZZZ=           -285.4939 XXXY=             14.5083
 XXXZ=            -35.8020 YYYX=             18.2067 YYYZ=            -13.3986 ZZZX=             43.4865
 ZZZY=             -4.4145 XXYY=           -335.6085 XXZZ=           -286.4347 YYZZ=           -117.8171
 XXYZ=            -27.8906 YYXZ=              7.6657 ZZXY=             11.1844
 N-N= 6.342463282875D+02 E-N=-3.231549722046D+03  KE= 8.197068553049D+02
  Exact polarizability:      93.018       3.553      74.118      -0.919       0.798      73.426
 Approx polarizability:      86.485       2.652      77.563      -0.843       1.170      80.747
   1 Symmetry operations used in ECPInt.
 ECPInt:  NShTT=   12246 NPrTT=   33908 LenC2=   11681 LenP2D=   25338.
 LDataN:  DoStor=T MaxTD1= 8 Len=  415
 Calling FoFJK, ICntrl=    100127 FMM=F ISym2X=0 I1Cent= 0 IOpClX= 0 NMat=1 NMatS=1 NMatT=0.
 ***** Axes restored to original set *****
 -------------------------------------------------------------------
 Center     Atomic                   Forces (Hartrees/Bohr)
 Number     Number              X              Y              Z
 -------------------------------------------------------------------
      1       14           0.102598627   -0.040787772   -0.067776915
      2        8          -0.027683397    0.031055506    0.033210190
      3        8          -0.038324156   -0.012148466    0.000004476
      4        1          -0.007532745   -0.003880428   -0.002350438
      5        8          -0.013676055    0.024809931    0.006297090
      6        1           0.000238704   -0.005100133    0.001133682
      7        8          -0.009780370    0.005546202    0.024624061
      8        1          -0.000888680    0.000339289   -0.004687529
      9        6           0.007704679   -0.007310193   -0.022215961
     10        1          -0.001061855   -0.000552730    0.003548227
     11        1          -0.003714823    0.000709534    0.001982313
     12        6           0.003825080    0.001171465   -0.009457240
     13        1           0.001088536   -0.000679089   -0.000032065
     14        1          -0.001787632   -0.000310892    0.001227517
     15        8          -0.009052301    0.005042424    0.021029374
     16        8          -0.009153557    0.005990422    0.006932468
     17        1           0.006293596   -0.006913947   -0.002000255
     18        1           0.000906350    0.003018879    0.008531006
 -------------------------------------------------------------------
 Cartesian Forces:  Max     0.102598627 RMS     0.021334368
 FormGI is forming the generalized inverse of G from B-inverse, IUseBI=4.

 GradGradGradGradGradGradGradGradGradGradGradGradGradGradGradGradGradGrad
 Berny optimization.
 Internal  Forces:  Max     0.052979539 RMS     0.010186139
 Search for a saddle point.
 Step number   1 out of a maximum of   92
 All quantities printed in internal units (Hartrees-Bohrs-Radians)
 Swapping is turned off.
 Second derivative matrix not updated -- analytic derivatives used.
 ITU=  0
     Eigenvalues ---   -0.01081  -0.00433   0.00282   0.00359   0.00429
     Eigenvalues ---    0.00590   0.00729   0.00805   0.01063   0.02143
     Eigenvalues ---    0.03345   0.03996   0.04289   0.04417   0.04800
     Eigenvalues ---    0.05526   0.05791   0.06611   0.07862   0.08069
     Eigenvalues ---    0.08328   0.09133   0.10157   0.11084   0.11609
     Eigenvalues ---    0.12543   0.13628   0.14842   0.16724   0.19651
     Eigenvalues ---    0.20309   0.24608   0.26633   0.30756   0.31159
     Eigenvalues ---    0.32363   0.33472   0.33736   0.33976   0.35356
     Eigenvalues ---    0.35545   0.39844   0.44539   0.52578   0.53619
     Eigenvalues ---    0.54324   0.54640   0.55287
 Eigenvectors required to have negative eigenvalues:
                          R2        R5        D6        D10       A5
   1                   -0.71788   0.47210   0.21884  -0.21865   0.16284
                          D8        D4        A6        A9        A8
   1                    0.14982  -0.14246   0.13387  -0.11357  -0.11139
 RFO step:  Lambda0=2.581712826D-02 Lambda=-4.53273571D-02.
 Linear search not attempted -- option 19 set.
 Maximum step size (   0.300) exceeded in Quadratic search.
    -- Step size scaled by   0.309
 Iteration  1 RMS(Cart)=  0.04648729 RMS(Int)=  0.00350677
 Iteration  2 RMS(Cart)=  0.00704004 RMS(Int)=  0.00078034
 Iteration  3 RMS(Cart)=  0.00000871 RMS(Int)=  0.00078033
 Iteration  4 RMS(Cart)=  0.00000000 RMS(Int)=  0.00078033
 Variable       Old X    -DE/DX   Delta X   Delta X   Delta X     New X
                                 (Linear)    (Quad)   (Total)
    R1        3.06629  -0.05298   0.00000  -0.04582  -0.04582   3.02047
    R2        4.05346  -0.04597   0.00000   0.07018   0.07018   4.12365
    R3        3.10838   0.01931   0.00000   0.02096   0.02096   3.12934
    R4        3.07711   0.01897   0.00000   0.01945   0.01945   3.09656
    R5        4.05346   0.00196   0.00000  -0.22385  -0.22385   3.82962
    R6        1.80819  -0.00311   0.00000  -0.00093  -0.00093   1.80726
    R7        1.82068  -0.00341   0.00000   0.00232   0.00232   1.82300
    R8        1.81550  -0.00335   0.00000   0.00224   0.00224   1.81774
    R9        2.05156   0.00286   0.00000   0.00263   0.00263   2.05419
   R10        2.06082   0.00148   0.00000  -0.00054  -0.00054   2.06028
   R11        2.87180  -0.00141   0.00000   0.00132   0.00132   2.87312
   R12        2.72524  -0.01507   0.00000  -0.00882  -0.00882   2.71643
   R13        2.06298   0.00039   0.00000   0.00099   0.00099   2.06397
   R14        2.06175   0.00216   0.00000   0.00156   0.00156   2.06331
   R15        2.66641  -0.00443   0.00000  -0.00678  -0.00678   2.65963
   R16        1.81414  -0.00904   0.00000  -0.00227  -0.00227   1.81187
   R17        1.82008   0.00282   0.00000   0.00583   0.00583   1.82591
    A1        1.72918   0.01269   0.00000   0.01584   0.01637   1.74554
    A2        2.05576   0.00773   0.00000   0.02281   0.02131   2.07708
    A3        2.09844   0.00672   0.00000   0.02982   0.02834   2.12677
    A4        1.52750   0.00142   0.00000   0.03158   0.03103   1.55854
    A5        1.57151  -0.00554   0.00000  -0.05612  -0.05716   1.51435
    A6        1.63935  -0.00740   0.00000  -0.06297  -0.06388   1.57547
    A7        2.09913  -0.01462   0.00000  -0.02625  -0.02905   2.07007
    A8        1.47254   0.00071   0.00000   0.03479   0.03521   1.50775
    A9        1.48477  -0.00320   0.00000   0.03364   0.03391   1.51868
   A10        1.84647  -0.01485   0.00000  -0.00827  -0.00827   1.83820
   A11        1.85194  -0.00721   0.00000  -0.03544  -0.03544   1.81650
   A12        1.88617  -0.00619   0.00000  -0.04200  -0.04200   1.84416
   A13        1.92025  -0.00164   0.00000   0.00354   0.00350   1.92375
   A14        1.95269   0.00114   0.00000  -0.00162  -0.00164   1.95105
   A15        1.85989   0.00446   0.00000   0.00657   0.00649   1.86637
   A16        1.93860   0.00159   0.00000   0.00718   0.00719   1.94579
   A17        1.86865   0.00787   0.00000   0.00504   0.00506   1.87370
   A18        1.92028  -0.01312   0.00000  -0.02066  -0.02067   1.89961
   A19        1.91652  -0.00484   0.00000  -0.01203  -0.01202   1.90450
   A20        1.90322   0.00260   0.00000   0.00320   0.00319   1.90642
   A21        1.92148   0.00232   0.00000   0.00427   0.00426   1.92574
   A22        1.88902   0.00065   0.00000   0.00079   0.00079   1.88981
   A23        1.93849   0.00073   0.00000   0.00275   0.00275   1.94125
   A24        1.89435  -0.00139   0.00000   0.00116   0.00114   1.89549
   A25        2.12640   0.01483   0.00000   0.06381   0.06272   2.18912
   A26        2.07839  -0.00713   0.00000  -0.08722  -0.08816   1.99023
   A27        2.07839  -0.00770   0.00000   0.02340   0.02210   2.10049
   A28        1.86539  -0.00615   0.00000  -0.00694  -0.00694   1.85845
   A29        3.25668   0.01411   0.00000   0.04742   0.04740   3.30408
   A30        3.19073  -0.00280   0.00000  -0.00269  -0.00260   3.18813
    D1       -0.07749   0.00043   0.00000   0.00051   0.00048  -0.07702
    D2       -2.14008  -0.00752   0.00000  -0.01385  -0.01208  -2.15216
    D3        2.04255   0.00790   0.00000   0.01956   0.01783   2.06038
    D4       -1.64966  -0.00266   0.00000   0.03245   0.03280  -1.61687
    D5        0.10075   0.00952   0.00000   0.02255   0.02176   0.12251
    D6        1.75136  -0.00299   0.00000  -0.08453  -0.08354   1.66782
    D7       -3.11919  -0.00349   0.00000  -0.01886  -0.01940  -3.13859
    D8        1.71967   0.00314   0.00000  -0.04037  -0.04114   1.67853
    D9       -0.07600  -0.00860   0.00000  -0.02643  -0.02537  -0.10137
   D10       -1.68772   0.00352   0.00000   0.07815   0.07730  -1.61042
   D11       -3.09342   0.00192   0.00000   0.01212   0.01269  -3.08074
   D12        2.69266   0.00253   0.00000   0.00556   0.00690   2.69956
   D13       -0.44893   0.00052   0.00000   0.09634   0.09500  -0.35393
   D14       -1.52686   0.01006   0.00000   0.02077   0.02235  -1.50452
   D15        1.61473   0.00806   0.00000   0.11156   0.11045   1.72518
   D16        0.58718  -0.00440   0.00000  -0.01714  -0.01603   0.57114
   D17       -2.55442  -0.00640   0.00000   0.07365   0.07207  -2.48234
   D18        0.75993   0.00017   0.00000   0.00157   0.00159   0.76152
   D19       -1.30717   0.00068   0.00000   0.00576   0.00579  -1.30138
   D20        2.89950  -0.00060   0.00000  -0.00015  -0.00014   2.89936
   D21        2.91329   0.00002   0.00000   0.01026   0.01028   2.92356
   D22        0.84619   0.00053   0.00000   0.01446   0.01447   0.86066
   D23       -1.23033  -0.00074   0.00000   0.00854   0.00854  -1.22179
   D24       -1.30395   0.00244   0.00000   0.00786   0.00784  -1.29611
   D25        2.91214   0.00295   0.00000   0.01205   0.01203   2.92417
   D26        0.83562   0.00167   0.00000   0.00614   0.00610   0.84172
   D27       -1.03382   0.00079   0.00000   0.01442   0.01568  -1.01814
   D28        2.10778   0.00279   0.00000  -0.07637  -0.07759   2.03019
   D29       -3.08820  -0.00347   0.00000   0.00451   0.00574  -3.08247
   D30        0.05339  -0.00146   0.00000  -0.08627  -0.08753  -0.03414
   D31        1.08644  -0.00263   0.00000   0.00464   0.00587   1.09230
   D32       -2.05516  -0.00062   0.00000  -0.08615  -0.08739  -2.14255
   D33       -1.59658   0.00751   0.00000   0.03053   0.03053  -1.56605
   D34        0.52999   0.00346   0.00000   0.02008   0.02008   0.55007
   D35        2.60466   0.00381   0.00000   0.02341   0.02341   2.62807
         Item               Value     Threshold  Converged?
 Maximum Force            0.052980     0.000450     NO 
 RMS     Force            0.010186     0.000300     NO 
 Maximum Displacement     0.183854     0.001800     NO 
 RMS     Displacement     0.048881     0.001200     NO 
 Predicted change in Energy=-6.083160D-03
 GradGradGradGradGradGradGradGradGradGradGradGradGradGradGradGradGradGrad

                          Input orientation:                          
 ---------------------------------------------------------------------
 Center     Atomic      Atomic             Coordinates (Angstroms)
 Number     Number       Type             X           Y           Z
 ---------------------------------------------------------------------
      1         14           0        0.967646   -0.141941   -0.086829
      2          8           0        1.664957   -1.123703   -1.137860
      3          8           0        2.696096    1.034349    0.538097
      4          1           0        3.445134    0.637942    0.094894
      5          8           0        0.313514    1.279942   -0.627775
      6          1           0        1.026674    1.921106   -0.523176
      7          8           0        0.699621   -0.587819    1.467023
      8          1           0        1.441522   -0.237739    1.969310
      9          6           0       -1.961960   -1.023603    0.349711
     10          1           0       -1.647488   -1.535783    1.255477
     11          1           0       -2.740688   -1.595402   -0.155543
     12          6           0       -2.412441    0.400396    0.634107
     13          1           0       -1.708144    0.866902    1.326385
     14          1           0       -3.395519    0.378566    1.108694
     15          8           0       -0.822655   -0.983910   -0.525920
     16          8           0       -2.508687    1.131597   -0.564602
     17          1           0       -1.641899    1.532462   -0.711527
     18          1           0       -0.842847   -1.441515   -1.368230
 ---------------------------------------------------------------------
                    Distance matrix (angstroms):
                    1          2          3          4          5
     1  Si   0.000000
     2  O    1.598363   0.000000
     3  O    2.182139   2.920491   0.000000
     4  H    2.603687   2.791434   0.956360   0.000000
     5  O    1.655978   2.804299   2.663882   3.277416   0.000000
     6  H    2.109513   3.171135   2.167858   2.806682   0.964691
     7  O    1.638628   2.829216   2.735004   3.305007   2.832982
     8  H    2.112212   3.238728   2.289222   2.880055   3.212570
     9  C    3.090386   3.921404   5.095895   5.662361   3.382245
    10  H    3.253230   4.107330   5.097738   5.657458   3.914138
    11  H    3.983593   4.538409   6.079091   6.581408   4.221227
    12  C    3.498409   4.699778   5.148618   5.887135   3.129981
    13  H    3.189795   4.627399   4.477362   5.303326   2.841909
    14  H    4.553835   5.736919   6.153325   6.920231   4.193416
    15  O    2.026546   2.565584   4.193699   4.607584   2.535010
    16  O    3.732969   4.778526   5.321200   6.010542   2.826804
    17  H    3.162847   4.262895   4.541793   5.227656   1.973430
    18  H    2.570752   2.538337   4.721028   4.985143   3.048241
                    6          7          8          9         10
     6  H    0.000000
     7  O    3.219093   0.000000
     8  H    3.323431   0.961906   0.000000
     9  C    4.285461   2.919300   3.850243   0.000000
    10  H    4.718562   2.540139   3.425851   1.087030   0.000000
    11  H    5.166624   3.934930   4.883557   1.090254   1.785950
    12  C    3.934384   3.369755   4.128318   1.520390   2.172566
    13  H    3.465754   2.816616   3.399115   2.142971   2.404497
    14  H    4.959660   4.222852   4.951511   2.144114   2.596516
    15  O    3.443710   2.538904   3.451005   1.437471   2.039188
    16  O    3.622682   4.168589   4.888757   2.404114   3.342046
    17  H    2.703295   3.837238   4.452863   2.786061   3.644622
    18  H    3.939092   3.338663   4.219785   2.092460   2.745937
                   11         12         13         14         15
    11  H    0.000000
    12  C    2.171290   0.000000
    13  H    3.053719   1.092204   0.000000
    14  H    2.433855   1.091857   1.770055   0.000000
    15  O    2.046938   2.406114   2.764169   3.338852   0.000000
    16  O    2.767250   1.407417   2.070450   2.038000   2.705470
    17  H    3.361546   1.919906   2.144864   2.778464   2.652874
    18  H    2.257453   3.140958   3.652189   3.995496   0.958800
                   16         17         18
    16  O    0.000000
    17  H    0.966231   0.000000
    18  H    3.168872   3.148696   0.000000
 Stoichiometry    C2H9O6Si(1-)
 Framework group  C1[X(C2H9O6Si)]
 Deg. of freedom    48
 Full point group                 C1      NOp   1
 Largest Abelian subgroup         C1      NOp   1
 Largest concise Abelian subgroup C1      NOp   1
                         Standard orientation:                         
 ---------------------------------------------------------------------
 Center     Atomic      Atomic             Coordinates (Angstroms)
 Number     Number       Type             X           Y           Z
 ---------------------------------------------------------------------
      1         14           0        0.994679   -0.159513   -0.106084
      2          8           0        1.677194   -1.114194   -1.191221
      3          8           0        2.738478    0.976337    0.550222
      4          1           0        3.481444    0.586247    0.091466
      5          8           0        0.354801    1.286498   -0.597887
      6          1           0        1.075526    1.915885   -0.475179
      7          8           0        0.727013   -0.652837    1.433425
      8          1           0        1.474562   -0.327661    1.944008
      9          6           0       -1.943182   -1.022108    0.312710
     10          1           0       -1.631387   -1.567064    1.200088
     11          1           0       -2.730074   -1.568362   -0.207925
     12          6           0       -2.376539    0.396803    0.645094
     13          1           0       -1.664616    0.832556    1.349505
     14          1           0       -3.358151    0.370500    1.122481
     15          8           0       -0.806542   -0.966613   -0.565522
     16          8           0       -2.468662    1.167766   -0.528768
     17          1           0       -1.597910    1.563487   -0.665869
     18          1           0       -0.834827   -1.396232   -1.422216
 ---------------------------------------------------------------------
 Rotational constants (GHZ):           2.2186532           0.9017602           0.8398645
 Standard basis: def2TZVPP (5D, 7F)
 There are   471 symmetry adapted cartesian basis functions of A   symmetry.
 There are   416 symmetry adapted basis functions of A   symmetry.
   416 basis functions,   630 primitive gaussians,   471 cartesian basis functions
    42 alpha electrons       42 beta electrons
       nuclear repulsion energy       639.2397602115 Hartrees.
 NAtoms=   18 NActive=   18 NUniq=   18 SFac= 1.00D+00 NAtFMM=   60 NAOKFM=F Big=F
 Integral buffers will be    131072 words long.
 Raffenetti 2 integral format.
 Two-electron integral symmetry is turned on.
 Nuclear repulsion after empirical dispersion term =      639.2297854635 Hartrees.
 One-electron integrals computed using PRISM.
   1 Symmetry operations used in ECPInt.
 ECPInt:  NShTT=   12246 NPrTT=   33908 LenC2=   11706 LenP2D=   25425.
 LDataN:  DoStor=T MaxTD1= 6 Len=  172
 NBasis=   416 RedAO= T EigKep=  2.12D-04  NBF=   416
 NBsUse=   416 1.00D-06 EigRej= -1.00D+00 NBFU=   416
 Initial guess from the checkpoint file:  "DeprotonatedSilicateTSAttempt.chk"
 B after Tr=    -0.000000   -0.000000   -0.000000
         Rot=    0.999959    0.008998   -0.000318   -0.001192 Ang=   1.04 deg.
 ExpMin= 7.01D-02 ExpMax= 4.48D+04 ExpMxC= 1.53D+03 IAcc=3 IRadAn=         5 AccDes= 0.00D+00
 Harris functional with IExCor= 4639 and IRadAn=       5 diagonalized for initial guess.
 HarFok:  IExCor= 4639 AccDes= 0.00D+00 IRadAn=         5 IDoV= 1 UseB2=F ITyADJ=14
 ICtDFT=  3500011 ScaDFX=  1.000000  1.000000  1.000000  1.000000
 FoFCou: FMM=F IPFlag=           0 FMFlag=      100000 FMFlg1=           0
         NFxFlg=           0 DoJE=T BraDBF=F KetDBF=T FulRan=T
         wScrn=  0.000000 ICntrl=       500 IOpCl=  0 I1Cent=   200000004 NGrid=           0
         NMat0=    1 NMatS0=      1 NMatT0=    0 NMatD0=    1 NMtDS0=    0 NMtDT0=    0
 Petite list used in FoFCou.
 Requested convergence on RMS density matrix=1.00D-08 within 128 cycles.
 Requested convergence on MAX density matrix=1.00D-06.
 Requested convergence on             energy=1.00D-06.
 No special actions if energy rises.
 Integral accuracy reduced to 1.0D-05 until final iterations.
 Initial convergence to 1.0D-05 achieved.  Increase integral accuracy.
 SCF Done:  E(RwB97XD) =  -822.729274531     A.U. after   13 cycles
            NFock= 13  Conv=0.45D-08     -V/T= 2.0036
 DoSCS=F DFT=T ScalE2(SS,OS)=  1.000000  1.000000
 Range of M.O.s used for correlation:     1   416
 NBasis=   416 NAE=    42 NBE=    42 NFC=     0 NFV=     0
 NROrb=    416 NOA=    42 NOB=    42 NVA=   374 NVB=   374

 **** Warning!!: The largest alpha MO coefficient is  0.10104790D+02

   1 Symmetry operations used in ECPInt.
 ECPInt:  NShTT=   12246 NPrTT=   33908 LenC2=   11706 LenP2D=   25425.
 LDataN:  DoStor=T MaxTD1= 7 Len=  274
 Number of processors reduced to  12 by ecpmxn.
 Symmetrizing basis deriv contribution to polar:
 IMax=3 JMax=2 DiffMx= 0.00D+00
 G2DrvN: will do    19 centers at a time, making    1 passes.
 Calling FoFCou, ICntrl=  3107 FMM=F I1Cent=   0 AccDes= 0.00D+00.
 End of G2Drv F.D. properties file   721 does not exist.
 End of G2Drv F.D. properties file   722 does not exist.
 End of G2Drv F.D. properties file   788 does not exist.
          IDoAtm=111111111111111111
          Differentiating once with respect to electric field.
                with respect to dipole field.
          Differentiating once with respect to nuclear coordinates.
 CalDSu exits because no D1Ps are significant.
          There are    57 degrees of freedom in the 1st order CPHF.  IDoFFX=6 NUNeed=     3.
     54 vectors produced by pass  0 Test12= 2.76D-14 1.75D-09 XBig12= 3.07D+01 1.18D+00.
 AX will form    54 AO Fock derivatives at one time.
     54 vectors produced by pass  1 Test12= 2.76D-14 1.75D-09 XBig12= 2.45D+00 2.53D-01.
     54 vectors produced by pass  2 Test12= 2.76D-14 1.75D-09 XBig12= 7.61D-02 4.68D-02.
     54 vectors produced by pass  3 Test12= 2.76D-14 1.75D-09 XBig12= 1.28D-03 5.34D-03.
     54 vectors produced by pass  4 Test12= 2.76D-14 1.75D-09 XBig12= 1.29D-05 4.28D-04.
     54 vectors produced by pass  5 Test12= 2.76D-14 1.75D-09 XBig12= 1.21D-07 4.20D-05.
     54 vectors produced by pass  6 Test12= 2.76D-14 1.75D-09 XBig12= 9.45D-10 4.07D-06.
     22 vectors produced by pass  7 Test12= 2.76D-14 1.75D-09 XBig12= 6.39D-12 2.74D-07.
      3 vectors produced by pass  8 Test12= 2.76D-14 1.75D-09 XBig12= 3.83D-14 2.51D-08.
      2 vectors produced by pass  9 Test12= 2.76D-14 1.75D-09 XBig12= 2.47D-16 2.32D-09.
 InvSVY:  IOpt=1 It=  1 EMax= 4.44D-15
 Solved reduced A of dimension   405 with    57 vectors.
 Isotropic polarizability for W=    0.000000       79.86 Bohr**3.
 End of Minotr F.D. properties file   721 does not exist.
 End of Minotr F.D. properties file   722 does not exist.
 End of Minotr F.D. properties file   788 does not exist.
   1 Symmetry operations used in ECPInt.
 ECPInt:  NShTT=   12246 NPrTT=   33908 LenC2=   11706 LenP2D=   25425.
 LDataN:  DoStor=T MaxTD1= 8 Len=  415
 Calling FoFJK, ICntrl=    100127 FMM=F ISym2X=0 I1Cent= 0 IOpClX= 0 NMat=1 NMatS=1 NMatT=0.
 ***** Axes restored to original set *****
 -------------------------------------------------------------------
 Center     Atomic                   Forces (Hartrees/Bohr)
 Number     Number              X              Y              Z
 -------------------------------------------------------------------
      1       14           0.082775271   -0.024341167   -0.049151103
      2        8          -0.020707388    0.021034749    0.023128591
      3        8          -0.032922126   -0.013129304   -0.001765502
      4        1          -0.005565278   -0.002980191   -0.002023697
      5        8          -0.010204614    0.018737146    0.005376600
      6        1          -0.000020981   -0.003548106    0.001212748
      7        8          -0.007020507    0.004289638    0.018602629
      8        1          -0.000816281    0.000618709   -0.003347125
      9        6           0.006508583   -0.004787634   -0.016908556
     10        1          -0.001290614   -0.000573076    0.002591408
     11        1          -0.002849903    0.000851708    0.001150704
     12        6           0.002539170    0.000682791   -0.006857455
     13        1           0.000738027   -0.000235509   -0.000077502
     14        1          -0.001250666   -0.000605498    0.001018555
     15        8          -0.008623719    0.003818679    0.016896545
     16        8          -0.007688923    0.006202576    0.006094774
     17        1           0.005263945   -0.006518676   -0.002241379
     18        1           0.001136004    0.000483164    0.006299765
 -------------------------------------------------------------------
 Cartesian Forces:  Max     0.082775271 RMS     0.016413040
 FormGI is forming the generalized inverse of G from B-inverse, IUseBI=4.

 GradGradGradGradGradGradGradGradGradGradGradGradGradGradGradGradGradGrad
 Berny optimization.
 Internal  Forces:  Max     0.040251844 RMS     0.007914153
 Search for a saddle point.
 Step number   2 out of a maximum of   92
 All quantities printed in internal units (Hartrees-Bohrs-Radians)
 Swapping is turned off.
 Second derivative matrix not updated -- analytic derivatives used.
 ITU=  0  0
     Eigenvalues ---   -0.01366  -0.00400   0.00278   0.00437   0.00737
     Eigenvalues ---    0.00813   0.00884   0.00981   0.01866   0.02418
     Eigenvalues ---    0.03582   0.03909   0.04462   0.04828   0.05025
     Eigenvalues ---    0.05723   0.06112   0.07045   0.07969   0.08112
     Eigenvalues ---    0.08817   0.09640   0.10312   0.11220   0.11550
     Eigenvalues ---    0.13017   0.14083   0.15546   0.16394   0.20647
     Eigenvalues ---    0.21669   0.24938   0.27170   0.31130   0.32110
     Eigenvalues ---    0.33389   0.33650   0.33770   0.34150   0.35323
     Eigenvalues ---    0.37812   0.41604   0.48975   0.52470   0.53046
     Eigenvalues ---    0.54193   0.54816   0.55418
 Eigenvectors required to have negative eigenvalues:
                          R2        R5        D10       D6        A5
   1                    0.82048  -0.24094   0.22848  -0.22714  -0.17377
                          A6        D8        D4        A29       A4
   1                   -0.14211  -0.12920   0.11987   0.11460   0.10836
 RFO step:  Lambda0=2.615785416D-02 Lambda=-2.62621965D-02.
 Linear search not attempted -- option 19 set.
 Maximum step size (   0.300) exceeded in Quadratic search.
    -- Step size scaled by   0.390
 Iteration  1 RMS(Cart)=  0.07312819 RMS(Int)=  0.00336389
 Iteration  2 RMS(Cart)=  0.00592294 RMS(Int)=  0.00127378
 Iteration  3 RMS(Cart)=  0.00001389 RMS(Int)=  0.00127375
 Iteration  4 RMS(Cart)=  0.00000002 RMS(Int)=  0.00127375
 Variable       Old X    -DE/DX   Delta X   Delta X   Delta X     New X
                                 (Linear)    (Quad)   (Total)
    R1        3.02047  -0.03716   0.00000  -0.05722  -0.05722   2.96325
    R2        4.12365  -0.04025   0.00000   0.19141   0.19141   4.31506
    R3        3.12934   0.01493   0.00000   0.01490   0.01490   3.14424
    R4        3.09656   0.01441   0.00000   0.01112   0.01112   3.10768
    R5        3.82962   0.00344   0.00000  -0.08285  -0.08285   3.74676
    R6        1.80726  -0.00219   0.00000  -0.00069  -0.00069   1.80657
    R7        1.82300  -0.00224   0.00000   0.00807   0.00807   1.83107
    R8        1.81774  -0.00215   0.00000   0.00653   0.00653   1.82427
    R9        2.05419   0.00205   0.00000   0.00071   0.00071   2.05490
   R10        2.06028   0.00106   0.00000   0.00005   0.00005   2.06033
   R11        2.87312  -0.00072   0.00000   0.00135   0.00135   2.87447
   R12        2.71643  -0.01070   0.00000  -0.00143  -0.00143   2.71499
   R13        2.06397   0.00033   0.00000   0.00038   0.00038   2.06435
   R14        2.06331   0.00158   0.00000   0.00196   0.00196   2.06527
   R15        2.65963  -0.00328   0.00000  -0.00559  -0.00559   2.65404
   R16        1.81187  -0.00579   0.00000  -0.00489  -0.00489   1.80698
   R17        1.82591   0.00236   0.00000   0.00695   0.00695   1.83286
    A1        1.74554   0.01004   0.00000   0.03796   0.03843   1.78397
    A2        2.07708   0.00612   0.00000   0.02072   0.01814   2.09522
    A3        2.12677   0.00564   0.00000   0.03201   0.02975   2.15652
    A4        1.55854   0.00067   0.00000   0.06390   0.06321   1.62174
    A5        1.51435  -0.00410   0.00000  -0.08252  -0.08375   1.43060
    A6        1.57547  -0.00605   0.00000  -0.08339  -0.08457   1.49090
    A7        2.07007  -0.01197   0.00000  -0.03493  -0.03865   2.03143
    A8        1.50775   0.00026   0.00000   0.03607   0.03618   1.54393
    A9        1.51868  -0.00263   0.00000   0.02072   0.02056   1.53924
   A10        1.83820  -0.01127   0.00000   0.00833   0.00833   1.84653
   A11        1.81650  -0.00543   0.00000  -0.05097  -0.05097   1.76553
   A12        1.84416  -0.00496   0.00000  -0.05290  -0.05290   1.79126
   A13        1.92375  -0.00113   0.00000   0.00051   0.00051   1.92426
   A14        1.95105   0.00044   0.00000  -0.00029  -0.00028   1.95077
   A15        1.86637   0.00311   0.00000  -0.00638  -0.00638   1.86000
   A16        1.94579   0.00111   0.00000   0.00018   0.00017   1.94597
   A17        1.87370   0.00571   0.00000   0.00217   0.00216   1.87586
   A18        1.89961  -0.00907   0.00000   0.00369   0.00369   1.90329
   A19        1.90450  -0.00388   0.00000  -0.00751  -0.00751   1.89699
   A20        1.90642   0.00196   0.00000  -0.00050  -0.00051   1.90590
   A21        1.92574   0.00201   0.00000   0.00330   0.00330   1.92904
   A22        1.88981   0.00053   0.00000   0.00149   0.00148   1.89129
   A23        1.94125   0.00046   0.00000   0.00073   0.00074   1.94198
   A24        1.89549  -0.00105   0.00000   0.00251   0.00250   1.89799
   A25        2.18912   0.01186   0.00000   0.01438   0.01050   2.19962
   A26        1.99023  -0.00604   0.00000   0.02370   0.01969   2.00992
   A27        2.10049  -0.00570   0.00000  -0.02557  -0.02932   2.07117
   A28        1.85845  -0.00478   0.00000  -0.01278  -0.01278   1.84567
   A29        3.30408   0.01071   0.00000   0.10186   0.10164   3.40571
   A30        3.18813  -0.00238   0.00000  -0.00533  -0.00500   3.18313
    D1       -0.07702   0.00035   0.00000  -0.00155  -0.00172  -0.07873
    D2       -2.15216  -0.00549   0.00000  -0.00979  -0.00584  -2.15800
    D3        2.06038   0.00602   0.00000   0.01794   0.01415   2.07453
    D4       -1.61687  -0.00273   0.00000   0.02627   0.02642  -1.59045
    D5        0.12251   0.00671   0.00000   0.02484   0.02380   0.14631
    D6        1.66782  -0.00160   0.00000  -0.11299  -0.11141   1.55641
    D7       -3.13859  -0.00309   0.00000  -0.06529  -0.06597   3.07862
    D8        1.67853   0.00301   0.00000  -0.02738  -0.02824   1.65030
    D9       -0.10137  -0.00581   0.00000  -0.02369  -0.02210  -0.12347
   D10       -1.61042   0.00182   0.00000   0.11486   0.11366  -1.49676
   D11       -3.08074   0.00170   0.00000   0.05837   0.05886  -3.02188
   D12        2.69956   0.00227   0.00000   0.07042   0.07120   2.77076
   D13       -0.35393   0.00103   0.00000  -0.09250  -0.09386  -0.44778
   D14       -1.50452   0.00834   0.00000   0.08438   0.08669  -1.41782
   D15        1.72518   0.00710   0.00000  -0.07854  -0.07837   1.64681
   D16        0.57114  -0.00346   0.00000   0.04372   0.04383   0.61498
   D17       -2.48234  -0.00470   0.00000  -0.11920  -0.12123  -2.60357
   D18        0.76152   0.00040   0.00000   0.00431   0.00432   0.76584
   D19       -1.30138   0.00087   0.00000   0.00717   0.00717  -1.29421
   D20        2.89936  -0.00028   0.00000   0.00240   0.00240   2.90176
   D21        2.92356   0.00008   0.00000   0.00490   0.00491   2.92847
   D22        0.86066   0.00055   0.00000   0.00776   0.00776   0.86842
   D23       -1.22179  -0.00061   0.00000   0.00299   0.00299  -1.21880
   D24       -1.29611   0.00205   0.00000   0.01001   0.01001  -1.28610
   D25        2.92417   0.00253   0.00000   0.01287   0.01287   2.93704
   D26        0.84172   0.00137   0.00000   0.00810   0.00810   0.84982
   D27       -1.01814   0.00039   0.00000  -0.04456  -0.04344  -1.06158
   D28        2.03019   0.00177   0.00000   0.13034   0.12922   2.15941
   D29       -3.08247  -0.00284   0.00000  -0.04296  -0.04183  -3.12430
   D30       -0.03414  -0.00146   0.00000   0.13194   0.13082   0.09668
   D31        1.09230  -0.00235   0.00000  -0.04653  -0.04542   1.04688
   D32       -2.14255  -0.00098   0.00000   0.12836   0.12723  -2.01532
   D33       -1.56605   0.00669   0.00000   0.01497   0.01498  -1.55107
   D34        0.55007   0.00346   0.00000   0.00821   0.00821   0.55828
   D35        2.62807   0.00373   0.00000   0.01206   0.01206   2.64013
         Item               Value     Threshold  Converged?
 Maximum Force            0.040252     0.000450     NO 
 RMS     Force            0.007914     0.000300     NO 
 Maximum Displacement     0.282875     0.001800     NO 
 RMS     Displacement     0.075380     0.001200     NO 
 Predicted change in Energy= 3.325600D-04
 GradGradGradGradGradGradGradGradGradGradGradGradGradGradGradGradGradGrad

                          Input orientation:                          
 ---------------------------------------------------------------------
 Center     Atomic      Atomic             Coordinates (Angstroms)
 Number     Number       Type             X           Y           Z
 ---------------------------------------------------------------------
      1         14           0        0.929132   -0.222226   -0.142807
      2          8           0        1.661766   -1.134593   -1.186704
      3          8           0        2.623693    1.113153    0.605039
      4          1           0        3.417250    0.787633    0.182861
      5          8           0        0.296733    1.242443   -0.615296
      6          1           0        1.044375    1.834047   -0.442327
      7          8           0        0.729012   -0.629113    1.437958
      8          1           0        1.483254   -0.202043    1.862991
      9          6           0       -1.976777   -1.026786    0.361830
     10          1           0       -1.674935   -1.535267    1.274403
     11          1           0       -2.776401   -1.579853   -0.131556
     12          6           0       -2.378215    0.416328    0.626451
     13          1           0       -1.648497    0.863832    1.305129
     14          1           0       -3.356742    0.433776    1.112868
     15          8           0       -0.837068   -1.043668   -0.512770
     16          8           0       -2.460167    1.133510   -0.578306
     17          1           0       -1.571159    1.488541   -0.734330
     18          1           0       -0.932418   -1.427868   -1.383198
 ---------------------------------------------------------------------
                    Distance matrix (angstroms):
                    1          2          3          4          5
     1  Si   0.000000
     2  O    1.568084   0.000000
     3  O    2.283429   3.031173   0.000000
     4  H    2.704923   2.941494   0.955997   0.000000
     5  O    1.663860   2.800022   2.630718   3.252927   0.000000
     6  H    2.081166   3.122193   2.027538   2.667655   0.968959
     7  O    1.644513   2.830970   2.705376   3.287714   2.811661
     8  H    2.081029   3.194081   2.147739   2.746386   3.104235
     9  C    3.057169   3.955828   5.079647   5.693828   3.357532
    10  H    3.242488   4.165473   5.093170   5.702428   3.895396
    11  H    3.946423   4.583549   6.079134   6.638160   4.200418
    12  C    3.455149   4.691943   5.050258   5.824264   3.062637
    13  H    3.149637   4.600084   4.336346   5.189132   2.759582
    14  H    4.513953   5.738748   6.040285   6.846685   4.121695
    15  O    1.982701   2.589716   4.228267   4.683673   2.553884
    16  O    3.676280   4.743919   5.219804   5.936585   2.759299
    17  H    3.086759   4.187753   4.419459   5.120229   1.887791
    18  H    2.541163   2.618093   4.801646   5.126461   3.038264
                    6          7          8          9         10
     6  H    0.000000
     7  O    3.114817   0.000000
     8  H    3.106890   0.965361   0.000000
     9  C    4.237734   2.938961   3.860764   0.000000
    10  H    4.657691   2.574263   3.478230   1.087406   0.000000
    11  H    5.133188   3.956666   4.901147   1.090280   1.786599
    12  C    3.855688   3.377329   4.101506   1.521104   2.173285
    13  H    3.353576   2.810530   3.354871   2.138228   2.399442
    14  H    4.873317   4.234242   4.938877   2.145135   2.594552
    15  O    3.438901   2.535706   3.425853   1.436713   2.034128
    16  O    3.576459   4.164496   4.826407   2.405079   3.342379
    17  H    2.654366   3.807110   4.351275   2.773619   3.631693
    18  H    3.928491   3.370057   4.227985   2.072842   2.761469
                   11         12         13         14         15
    11  H    0.000000
    12  C    2.172065   0.000000
    13  H    3.050874   1.092406   0.000000
    14  H    2.437230   1.092896   1.772008   0.000000
    15  O    2.047884   2.409263   2.757124   3.342798   0.000000
    16  O    2.768019   1.404460   2.068541   2.038025   2.716404
    17  H    3.351266   1.911205   2.134393   2.777224   2.645763
    18  H    2.233826   3.087082   3.604408   3.946316   0.956214
                   16         17         18
    16  O    0.000000
    17  H    0.969910   0.000000
    18  H    3.089098   3.055235   0.000000
 Stoichiometry    C2H9O6Si(1-)
 Framework group  C1[X(C2H9O6Si)]
 Deg. of freedom    48
 Full point group                 C1      NOp   1
 Largest Abelian subgroup         C1      NOp   1
 Largest concise Abelian subgroup C1      NOp   1
                         Standard orientation:                         
 ---------------------------------------------------------------------
 Center     Atomic      Atomic             Coordinates (Angstroms)
 Number     Number       Type             X           Y           Z
 ---------------------------------------------------------------------
      1         14           0        0.960757   -0.238701   -0.138766
      2          8           0        1.670536   -1.218642   -1.136171
      3          8           0        2.683040    1.105067    0.526122
      4          1           0        3.468017    0.743427    0.117517
      5          8           0        0.350476    1.209280   -0.685885
      6          1           0        1.109333    1.796132   -0.549417
      7          8           0        0.764327   -0.556341    1.462778
      8          1           0        1.528651   -0.120307    1.859774
      9          6           0       -1.955094   -0.963840    0.425384
[...]
 0090131,-0.0683334,-0.017681,-0.0444795,-0.0473657,-0.0778164,-0.00347
 41,0.2885595,-0.0273572,-0.0644118,0.033481,0.3836959,-0.2289747,-0.10
 72474,-0.1946195,0.5275852,0.0269062,-0.048709,-0.1023534,-0.0569793,-
 0.0165314,-0.0077416,-0.0513011,0.0012893,-0.0421645,-0.1736113,0.0316
 253,0.1608508,0.0344807,0.0261213,-0.0074511,0.1029933,0.0083681,-0.02
 69378,-1.1403349,-0.0906186,0.226228,-0.1889059,-0.5267882,-0.1245777,
 0.320228,-0.1249905,-0.5294542,-0.784238,0.0381029,0.0639486,-0.009037
 3,-0.7081207,0.1677761,0.1195566,0.2215825,-0.7437448,0.8573222,-0.036
 0592,-0.071878,-0.0113861,0.2830158,-0.0272714,-0.0704139,-0.0175125,0
 .2086906,0.260442,0.0068117,0.0152809,0.0329363,0.3363458,0.0898062,0.
 0011023,0.0531101,0.2898311\Polar=89.1612472,2.8041544,74.9813338,-1.3
 66788,2.403291,72.8158766\Quadrupole=-1.6818263,-1.738748,3.4205743,6.
 0897642,-0.0611362,-3.6210485\PG=C01 [X(C2H9O6Si1)]\NImag=1\\0.2630804
 6,-0.23475181,0.49258790,-0.16132753,0.10901382,0.61026113,-0.16201513
 ,0.14337982,0.15491452,0.16668325,0.14352058,-0.20694963,-0.17846911,-
 0.15592922,0.21121764,0.15472807,-0.17758136,-0.24538977,-0.17155755,0
 .19077202,0.24992924,-0.01310338,0.01599261,0.00166917,0.00517969,-0.0
 0198174,-0.00023444,0.54605876,0.02615520,0.00443114,0.02056075,-0.003
 38319,-0.00239696,-0.00563225,0.03838236,0.02940323,0.00926726,0.02430
 612,-0.01713329,-0.00094204,-0.00611247,0.00116121,-0.15400942,-0.0158
 5463,0.10792831,-0.00413992,0.00059134,0.00143053,0.00105589,0.0005517
 1,0.00011410,-0.49188022,-0.02038809,0.16782848,0.49825685,-0.00465788
 ,0.00078224,0.00364753,0.00163683,0.00068291,0.00016905,-0.01632738,-0
 .00622275,0.01105208,0.02193222,0.00725243,-0.00233540,0.00140249,0.00
 027148,0.00078404,0.00037414,-0.00000805,0.17691544,0.01281020,-0.0739
 5424,-0.17181683,-0.00921181,0.07044803,-0.07358065,0.06169258,-0.0192
 5169,0.00794344,0.01450295,0.00160011,-0.04137547,-0.00503375,-0.04616
 101,-0.00130982,0.00017561,-0.00544585,0.24700953,0.05873542,-0.202366
 46,0.03536045,0.01144665,-0.01518577,0.00208668,-0.02346074,0.01997321
 ,-0.01842998,-0.00186490,0.00188103,-0.00367049,0.01731989,0.32382168,
 -0.01936592,0.04595000,-0.06453440,0.00739197,-0.01150029,0.00988527,-
 0.04184588,-0.00389247,-0.01589896,-0.00454715,-0.00029366,-0.00748757
 ,0.13133814,0.01242710,0.16610310,0.03284938,-0.01472381,0.02113933,-0
 .00788162,0.00401262,-0.00295066,0.00577978,-0.01683161,0.02394456,-0.
 00167891,-0.00039044,0.00112561,-0.11754091,-0.05124955,-0.06962281,0.
 09302619,-0.00612056,-0.04054588,-0.00450749,-0.00013928,0.00196514,0.
 00050334,0.00719621,-0.01906735,0.00683774,-0.00054827,-0.00257454,0.0
 0106601,-0.07146678,-0.09620046,-0.05746258,0.07273810,0.15346179,0.01
 801856,-0.01186294,0.02618143,-0.00371479,0.00327936,-0.00243172,0.015
 28176,-0.00793162,-0.01311062,0.00791631,-0.00333275,0.00957519,-0.071
 34807,-0.04352844,-0.08393364,0.03564628,0.05435161,0.07245668,-0.0431
 8248,-0.00200350,0.01338557,0.00994025,0.00208498,0.00887788,-0.004222
 15,-0.02348244,0.00986256,0.00120830,-0.00223863,0.00060708,0.01182115
 ,0.00844121,-0.00513257,-0.01014386,-0.00285763,-0.00658774,0.20072557
 ,0.00023563,-0.05386096,0.03075258,0.00332458,0.00915890,-0.01300846,-
 0.02104205,-0.01804696,0.01036785,-0.00013217,-0.00648277,0.00182206,0
 .00528322,-0.00170833,0.02089925,-0.00333473,0.00079122,-0.00463338,0.
 19642501,0.31026043,0.01649177,0.02951158,-0.25492378,0.00256057,-0.00
 041859,-0.01529512,0.00411083,0.00410114,0.01409451,0.00008013,-0.0003
 0870,0.00178578,0.00035408,0.01433815,-0.00753268,-0.00641694,-0.00330
 427,-0.00508421,0.06824857,0.05403867,0.35395538,0.00932334,0.00589959
 ,-0.01390837,-0.00297628,-0.00160177,0.00362043,-0.00859060,0.00528902
 ,-0.01082578,-0.00180797,-0.00034329,-0.00000994,-0.00567280,-0.005459
 31,0.00050360,0.00851392,0.00365419,0.00372020,-0.15291049,-0.17159574
 ,-0.07594923,0.15497116,0.00311579,0.01775019,-0.01682679,-0.00110902,
 -0.00177147,0.00357272,0.00298680,-0.00810113,-0.00963100,-0.00005666,
 0.00462519,-0.00445035,-0.00657267,-0.00738822,-0.00230758,0.00797846,
 0.00186444,0.00682165,-0.17460437,-0.23974617,-0.09520495,0.16471057,0
 .23206366,-0.01808904,-0.02202925,-0.02804227,0.00178719,0.00199353,-0
 .00048657,-0.00180890,-0.00312984,-0.00436226,-0.00093816,-0.00141107,
 -0.00067388,0.00209869,0.00005940,0.00248915,-0.00083466,0.00179077,-0
 .00238171,-0.07335851,-0.09105013,-0.07672380,0.09349376,0.11396264,0.
 11225860,-0.02051924,-0.00335763,0.00362532,0.00131979,-0.00016984,-0.
 00035887,0.00098109,0.00103198,0.00091514,-0.00000987,-0.00005184,-0.0
 0003141,0.00230435,0.00501163,0.00097631,-0.00109585,-0.00038657,-0.00
 176093,0.00172973,0.00125616,0.00378966,-0.00003515,-0.00128584,0.0003
 8631,0.53866212,0.00162369,0.00406682,0.00462901,-0.00132151,0.0003144
 5,-0.00004394,0.00016405,-0.00022224,0.00003385,0.00003320,0.00003532,
 -0.00000033,0.00059222,-0.00189965,-0.00114972,-0.00001154,-0.00030310
 ,0.00002365,0.00000664,-0.00163671,-0.00033650,-0.00026737,0.00023711,
 0.00005140,0.03317229,0.50543225,0.02120169,0.01147641,0.01041795,-0.0
 0635063,-0.00047871,0.00066144,-0.00054416,-0.00027361,-0.00117472,0.0
 0005441,0.00017991,0.00004804,-0.00099491,-0.00602642,-0.00186533,0.00
 118206,-0.00008719,0.00162998,0.00007373,-0.00126218,-0.00549201,-0.00
 027263,0.00029433,-0.00033618,0.08789945,-0.04715239,0.59003522,0.0008
 9892,-0.00045271,0.00261560,-0.00017365,-0.00000926,-0.00061625,0.0001
 4518,0.00042196,-0.00021184,0.00000408,0.00004580,-0.00003244,-0.00040
 099,-0.00022093,-0.00049378,0.00022429,-0.00003584,0.00021587,-0.00100
 025,0.00054659,-0.00069396,-0.00030333,-0.00035158,-0.00025161,-0.0785
 5361,0.04416095,-0.08386308,0.08309648,-0.00004192,-0.00044166,0.00176
 802,-0.00008566,-0.00007046,-0.00030166,-0.00001677,0.00027372,-0.0002
 5902,0.00000783,0.00001314,-0.00002165,-0.00077713,0.00037561,-0.00040
 759,0.00021354,0.00006730,0.00024797,0.00104383,0.00024865,-0.00088996
 ,-0.00008084,-0.00035035,-0.00001856,0.03819802,-0.11073635,0.10692434
 ,-0.04407776,0.11504740,-0.00149560,-0.00017391,-0.00143392,0.00040885
 ,-0.00009938,0.00023006,0.00007877,-0.00006954,0.00017137,-0.00000143,
 -0.00001798,0.00000421,0.00032063,0.00046301,0.00031040,-0.00022119,-0
 .00003585,-0.00018813,-0.00112398,-0.00051776,0.00015737,-0.00008366,0
 .00010135,0.00013159,-0.06827555,0.10251141,-0.23682097,0.07062981,-0.
 11245134,0.26498124,0.00521947,0.00292397,0.00155219,-0.00162106,0.000
 10096,0.00043240,-0.00027903,-0.00033540,-0.00024776,0.00000494,0.0000
 3831,0.00002577,-0.00034591,-0.00134362,-0.00028091,0.00030906,0.00004
 638,0.00033562,-0.00058677,-0.00043863,-0.00059252,0.00011069,0.000251
 62,0.00003349,-0.21898832,-0.09067804,-0.07927354,-0.00557205,-0.00436
 534,-0.00359683,0.25061793,-0.00023184,-0.00070689,-0.00027209,0.00019
 562,0.00005079,-0.00003964,-0.00005480,0.00010881,0.00003532,-0.000023
 04,0.00000710,0.00000741,-0.00004100,0.00037133,0.00025601,0.00009520,
 0.00000133,-0.00009511,0.00019264,0.00044920,0.00004662,0.00009409,-0.
 00014018,-0.00006322,-0.09178123,-0.09998665,-0.03771118,0.01239147,0.
 00754238,0.00430384,0.09723221,0.10323775,-0.00280629,-0.00232721,-0.0
 0296266,0.00119836,0.00017056,0.00008328,-0.00008444,-0.00011567,0.000
 21458,-0.00002061,-0.00004099,0.00000771,-0.00001382,0.00093256,0.0005
 4749,-0.00011419,0.00006709,-0.00025724,-0.00089805,-0.00008476,0.0010
 5164,0.00010811,0.00016953,0.00019157,-0.08694396,-0.03774503,-0.08835
 075,-0.02061330,-0.01314983,-0.00602302,0.07653841,0.04688258,0.092171
 97,-0.00069554,0.00346725,0.00262410,-0.00059083,-0.00064883,-0.000407
 27,0.00043912,-0.00012104,-0.00019395,0.00008821,-0.00001827,-0.000076
 94,-0.00142060,0.00095579,-0.00068528,-0.00039239,0.00018067,0.0000989
 5,0.00033559,-0.00077183,-0.00059748,-0.00045108,0.00023659,0.00006748
 ,-0.08191424,-0.00491731,-0.00202547,0.00024006,0.00803496,-0.00026558
 ,0.00437616,-0.02824594,-0.00487376,0.63883751,0.00364521,0.00655767,-
 0.00131238,-0.00088249,-0.00130976,0.00030000,0.00068085,-0.00055875,0
 .00099112,0.00004944,0.00000034,0.00005160,0.00578967,-0.00319057,0.00
 046907,-0.00108929,-0.00067341,-0.00095395,-0.00066918,-0.00251653,0.0
 0016894,-0.00006005,0.00079084,-0.00012223,0.00612538,-0.18231767,-0.0
 3774033,-0.00161595,-0.00836680,-0.00142177,0.00381160,-0.01439969,-0.
 00174961,0.03421113,0.46878858,-0.00088685,-0.00487089,0.00472003,0.00
 024523,0.00126721,-0.00072131,-0.00085643,0.00022085,-0.00202193,0.000
 05898,-0.00000721,-0.00013438,-0.00826801,0.00355220,-0.00445212,0.001
 18073,0.00100457,0.00243361,0.00212125,-0.00069571,-0.00195617,-0.0009
 8566,-0.00029790,0.00040063,-0.00767316,-0.01888112,-0.07957567,-0.003
 74489,0.02765955,0.00669062,0.00042553,-0.01700392,-0.00314241,-0.0136
 5965,0.02493926,0.54806858,-0.00115732,0.00113663,0.00127939,0.0001246
 6,-0.00025341,-0.00021228,0.00039998,0.00019401,0.00009797,0.00004334,
 -0.00002393,-0.00003961,-0.00024083,-0.00073874,0.00087145,-0.00040608
 ,-0.00016930,0.00015222,-0.00149542,0.00057831,-0.00056918,-0.00051390
 ,0.00018003,-0.00012781,0.00394859,0.00240262,0.00321299,0.00043424,-0
 .00077706,-0.00000126,0.00119293,0.00163193,0.00067558,-0.20190094,-0.
 07205310,-0.10856158,0.21242103,0.00025862,-0.00039903,-0.00274772,0.0
 0017670,0.00010606,0.00043612,-0.00006464,-0.00045504,0.00001191,-0.00
 000048,-0.00005883,0.00000358,-0.00007991,-0.00069217,0.00054047,-0.00
 018524,0.00027411,0.00011135,-0.00087550,0.00029122,0.00138798,0.00060
 032,0.00036316,0.00001408,-0.02820836,-0.01667390,-0.01666213,-0.00019
 070,0.00076516,0.00009463,0.00125929,-0.00620793,-0.00139785,-0.070983
 31,-0.08608317,-0.05496829,0.07547446,0.09641712,0.00096026,-0.0017834
 3,-0.00091778,-0.00001524,0.00030887,0.00017198,-0.00024483,-0.0000107
 7,-0.00009498,-0.00004782,0.00002049,0.00000380,0.00008761,0.00057509,
 0.00119115,0.00071767,0.00005863,-0.00016564,-0.00087040,0.00089952,-0
 .00038076,0.00008735,-0.00004205,0.00016660,-0.00542213,-0.00377063,-0
 .00154014,0.00042321,0.00022040,0.00058689,-0.00004723,-0.00058698,0.0
 0083596,-0.09966209,-0.05337607,-0.12727116,0.11880109,0.05034750,0.14
 956592,0.00136485,-0.00086441,-0.00048315,-0.00023602,0.00026895,0.000
 16999,-0.00040821,-0.00021195,-0.00030377,-0.00002678,0.00001877,0.000
 02497,-0.00098520,-0.00006342,0.00050162,0.00058527,0.00025392,0.00025
 466,-0.00078560,0.00046160,-0.00015552,0.00022520,0.00008333,0.0001168
 7,-0.00528053,-0.00271954,0.00081119,-0.00010687,0.00074225,0.00012702
 ,0.00116988,0.00047758,0.00014186,-0.24770329,0.03312609,0.10068621,-0
 .01854413,0.00495657,0.01127576,0.26199485,-0.00164903,-0.00191964,-0.
 00051296,0.00053881,0.00034044,0.00002042,-0.00012630,0.00007905,-0.00
 008070,-0.00002009,-0.00001123,-0.00000777,-0.00085333,0.00081045,0.00
 012168,0.00018863,0.00017092,0.00000422,0.00003506,0.00050271,0.000343
 89,0.00006435,-0.00015598,0.00004221,0.02749548,-0.00026781,-0.0148810
 7,-0.00031162,0.00013140,0.00124821,-0.00064769,0.00125752,-0.00060861
 ,0.03454964,-0.05640751,-0.02145056,-0.01046932,0.00291811,0.00595867,
 -0.03427809,0.06106667,-0.00029905,0.00026716,-0.00079467,0.00017133,-
 0.00013304,0.00005164,0.00019955,0.00001764,0.00029404,-0.00000181,-0.
 00000876,0.00001598,0.00131006,-0.00045943,0.00107460,-0.00017319,-0.0
 0021567,-0.00029748,-0.00036913,0.00018127,0.00031127,0.00010825,0.000
 04129,-0.00002236,0.00786853,-0.00345710,-0.00227400,0.00020932,-0.000
 98034,-0.00026937,-0.00026454,0.00022453,0.00007768,0.09328337,-0.0180
 9508,-0.09710993,-0.01379742,0.00306626,0.01062318,-0.11480397,0.01372
 825,0.11748533,0.00957213,0.00825331,0.00952950,-0.01885548,-0.0015724
 1,0.00357935,-0.00128850,-0.00178235,-0.00212603,0.00011339,0.00040118
 ,0.00018304,-0.00564247,-0.01639955,-0.00433627,0.00279245,-0.00079380
 ,0.00431609,-0.00743493,-0.00737912,-0.01154551,-0.00037770,0.00309325
 ,-0.00152108,-0.15281282,0.02191081,0.02986719,0.00437911,-0.00090470,
 -0.00063560,-0.03520609,0.00749227,0.03646285,-0.01472173,0.00697363,0
 .01648206,0.00048236,0.00159076,0.00004673,0.00123919,0.00392022,0.000
 37864,0.31412181,0.01240686,-0.01836440,0.00074543,0.00243795,0.004524
 75,-0.00025599,-0.00219643,0.00093645,-0.00255243,-0.00016847,0.000027
 21,-0.00017123,-0.01765376,-0.01683574,-0.00374683,0.00382656,-0.00070
 807,0.00649506,-0.00118414,0.00252969,-0.00132884,-0.00051560,-0.00013
 949,0.00014784,0.01221903,-0.06935129,0.00150736,-0.01183403,0.0046187
 0,0.00964250,-0.00781660,0.00533522,0.00921657,0.03290971,-0.00785950,
 -0.02307103,-0.00082053,0.00224526,0.00064060,0.00107456,-0.00750186,-
 0.00159596,-0.09241826,0.18666382,-0.00291184,-0.00664860,-0.03114367,
 0.01220563,0.00109443,0.00358813,0.00034032,-0.00047306,0.00212248,-0.
 00010872,-0.00033769,0.00007539,0.00144539,0.00458648,0.00525385,-0.00
 204252,-0.00014523,-0.00165832,-0.01397126,-0.00738996,-0.00658613,-0.
 00010721,0.00333113,-0.00228278,0.06795244,-0.02120982,-0.14452569,0.0
 3163122,-0.00835909,-0.02841772,0.00466868,0.00233350,0.00226224,0.018
 65648,-0.00138923,-0.01615818,-0.00061084,0.00052262,0.00042913,-0.000
 03913,-0.00385960,0.00038203,0.02649940,-0.14722938,0.60361855,-0.0011
 7923,-0.01380711,0.00455077,-0.00028623,0.00357739,0.00034832,-0.00341
 998,-0.00067824,-0.00441691,-0.00011444,0.00009887,-0.00015321,-0.0344
 0570,0.00821580,-0.00488463,0.00269089,0.00471912,0.00567919,0.0006496
 2,0.00221486,-0.00200831,-0.00020162,-0.00077058,0.00064403,-0.0004381
 5,0.00748311,0.00242645,0.00114820,0.00027850,-0.00000161,0.00038352,0
 .00162594,0.00039195,-0.09715308,-0.01229690,0.01105044,0.00489528,0.0
 1478735,-0.02089547,0.00574993,-0.02009280,0.02997551,0.00526956,0.002
 41714,-0.00513969,0.50947855,-0.00536952,-0.00716813,0.00153912,0.0012
 0634,0.00158046,-0.00038223,-0.00024996,0.00094533,-0.00057836,-0.0000
 2296,-0.00003626,-0.00006550,-0.00308984,0.01005992,-0.00012821,0.0010
 9454,-0.00015756,0.00000411,0.00181671,0.00187244,-0.00030749,-0.00036
 640,-0.00095032,0.00016344,0.00702713,-0.02868079,0.04463779,0.0008168
 6,-0.00846169,-0.00220596,-0.00053181,0.00280149,-0.00049833,0.0114823
 8,-0.10758711,0.07705584,0.00286919,0.00600689,0.00004864,-0.00432011,
 -0.00000810,0.00655769,0.00147358,0.00171875,0.00408847,0.05442355,0.1
 6189703,0.00004324,0.00513652,-0.00545005,0.00014377,-0.00116544,0.001
 07926,0.00130203,-0.00020081,0.00245879,-0.00000507,-0.00000282,0.0001
 9032,0.00861731,-0.00243618,0.00670779,-0.00164357,-0.00202721,-0.0026
 0541,-0.00233649,-0.00013632,0.00285879,0.00096293,0.00054260,-0.00042
 405,0.00236285,0.01546302,-0.01376451,0.00066239,0.00102156,0.00109186
 ,0.00098888,0.00156849,0.00185069,-0.03048555,0.07473812,-0.20684660,-
 0.00202142,0.01974711,-0.03382854,0.00229645,0.01536933,-0.02411017,-0
 .00088708,-0.00528105,0.00670683,-0.06612452,-0.15415326,0.32054048,0.
 00180373,0.02277462,-0.00743832,0.00021097,-0.00562597,-0.00025243,0.0
 0495685,0.00085356,0.00636875,0.00018988,-0.00014787,0.00022658,0.0126
 9740,-0.01195417,0.00713323,-0.00603351,-0.00599589,-0.00703228,-0.001
 79718,-0.00346330,0.00369242,0.00056106,0.00123250,-0.00109440,0.00259
 068,-0.00036706,-0.00513319,-0.00030580,0.00135075,0.00027713,-0.00040
 609,-0.00010331,0.00045740,0.00274639,-0.00524501,0.01016237,0.0003319
 6,0.00154717,-0.00479177,0.00178838,0.00153834,-0.00361319,-0.00696414
 ,-0.00145299,0.00163640,-0.39175325,-0.06600235,0.08859932,0.37641819,
 0.00612837,-0.00080236,0.00096359,-0.00076162,-0.00023762,0.00000900,-
 0.00101013,-0.00058802,-0.00123722,-0.00004815,0.00005037,-0.00005621,
 -0.00321458,-0.01164207,-0.00198003,-0.00053345,0.00237252,0.00239589,
 -0.00057827,-0.00032733,-0.00055782,0.00007170,0.00027514,0.00001754,-
 0.00324658,-0.00130999,0.00387889,0.00046952,-0.00010328,-0.00036476,0
 .00021231,0.00019323,-0.00009694,-0.02116389,-0.00665918,0.01120749,0.
 00078823,0.00151920,-0.00003670,0.00128108,-0.00061532,0.00010559,0.00
 019223,0.00199058,-0.00132273,-0.05054471,-0.03617871,0.02743131,0.072
 06266,0.05637640,-0.00100738,0.00029619,0.00132625,-0.00000960,-0.0002
 0473,-0.00049606,-0.00081305,-0.00019442,-0.00101136,-0.00003248,-0.00
 008900,-0.00017424,0.00182846,-0.00197352,-0.00791829,-0.00034239,0.00
 199715,0.00079139,0.00068771,-0.00003215,-0.00067469,-0.00031743,-0.00
 009789,0.00010553,-0.00052789,0.00050671,0.00027674,0.00014665,-0.0001
 2640,-0.00004473,0.00003494,-0.00021138,-0.00027026,0.03953446,0.01464
 173,-0.02219747,0.00074739,-0.00059920,0.00077738,-0.00034134,0.003743
 36,-0.00561220,0.00035787,-0.00001806,-0.00011961,0.04950381,0.0228016
 5,-0.05667512,-0.08899631,-0.03875269,0.09129886,-0.00453941,0.0038492
 8,-0.01590694,0.00217835,-0.00082770,0.00311911,0.00062711,-0.00008002
 ,0.00115380,0.00000308,-0.00014805,0.00004908,0.00114547,0.00262853,0.
 00247888,-0.00159809,-0.00027468,-0.00119190,-0.00285108,-0.00216841,-
 0.00079938,0.00013555,0.00088180,-0.00060365,0.00811141,-0.01126720,0.
 03172845,-0.00415401,0.00125750,0.00386010,-0.00037925,-0.00094778,0.0
 0039392,-0.00011931,-0.00050102,0.00222342,-0.00001573,-0.00006307,-0.
 00040269,-0.00004091,0.00011772,-0.00018225,-0.09466614,0.06876901,-0.
 14010475,-0.00131385,-0.00225734,-0.00247545,0.00296449,-0.00010473,-0
 .00045343,0.09451232,-0.00300281,0.00734907,-0.00433177,-0.00073131,-0
 .00201988,-0.00062382,0.00112805,-0.00049173,0.00109982,0.00010753,0.0
 0002909,0.00011785,0.00342660,-0.00018379,0.00220537,-0.00179797,-0.00
 073841,-0.00139668,-0.00155240,-0.00177871,-0.00127985,-0.00009347,0.0
 0077360,-0.00041855,-0.00304920,0.00330017,-0.00662382,0.00024724,-0.0
 0055286,-0.00100668,0.00028046,0.00008518,0.00037596,0.00084230,0.0017
 9221,-0.00566034,0.00004999,-0.00033621,0.00052821,-0.00028719,-0.0003
 8982,0.00075570,0.06594896,-0.08983009,0.18240775,-0.00165127,0.002346
 37,0.00438505,-0.00100168,-0.00431357,-0.00168735,-0.05886383,0.084959
 38,-0.01018594,-0.00008271,-0.00045200,0.00077839,-0.00067837,-0.00201
 292,0.00054368,0.00006810,0.00031707,0.00003714,-0.00000662,0.00000640
 ,0.00248289,0.00214333,0.00006020,-0.00057410,0.00010861,-0.00095417,0
 .00078378,-0.00015040,0.00043462,-0.00014472,0.00002128,-0.00000780,-0
 .00478210,0.01052753,-0.02734939,0.00398708,-0.00087640,-0.00115774,-0
 .00073257,0.00032524,0.00171154,-0.00133182,-0.00013919,-0.00072615,0.
 00010330,0.00009157,-0.00015298,-0.00027970,0.00082103,0.00017444,-0.1
 0665115,0.15685543,-0.39354652,-0.00094613,0.00142260,0.00021964,-0.00
 020170,-0.00160420,0.00061787,0.11711367,-0.16884685,0.42281788\\-0.00
 000050,0.00000118,-0.00000075,-0.00000040,-0.00000098,-0.00000037,-0.0
 0000061,0.00000478,-0.00000794,-0.00000123,0.00000543,-0.00000940,-0.0
 0000253,-0.00000134,-0.00000335,-0.00000352,0.00000054,-0.00000669,0.0
 0000299,0.00000405,-0.00000015,0.00000318,0.00000635,-0.00000295,0.000
 00196,-0.00000144,0.00000534,0.00000432,0.00000095,0.00000599,0.000001
 94,-0.00000369,0.00000815,0.00000045,-0.00000133,0.00000187,0.00000014
 ,0.00000171,-0.00000022,0.00000106,-0.00000127,0.00000354,0.00000063,-
 0.00000236,0.00000389,-0.00000286,-0.00000430,0.00000072,-0.00000345,-
 0.00000310,-0.00000151,-0.00000157,-0.00000518,0.00000383\\\@
 The archive entry for this job was punched.


 GARLIC THEN HAVE POWER TO SAVE FROM DEATH
 BEAR WITH IT THOUGH IT MAKETH UNSAVORY BREATH,
 AND SCORN NOT GARLIC LIKE SOME THAT THINK
 IT ONLY MAKETH MEN WINK AND DRINK AND STINK.
   --  SIR JOHN HARRINGTON,
       "THE ENGLISHMAN'S DOCTOR", 1609
 Job cpu time:       0 days  3 hours 43 minutes 22.5 seconds.
 Elapsed time:       0 days  0 hours 14 minutes  0.8 seconds.
 File lengths (MBytes):  RWF=    275 Int=      0 D2E=      0 Chk=     15 Scr=      1
 Normal termination of Gaussian 16 at Wed Oct 11 16:22:08 2023.
