 Entering Gaussian System, Link 0=/opt/software/gaussian/g16.c01/g16
 Initial command:
 /opt/software/gaussian/g16.c01/l1.exe "/scratch/arhender/22061673/Gau-32399.inp" -scrdir="/scratch/arhender/22061673/"
 Entering Link 1 = /opt/software/gaussian/g16.c01/l1.exe PID=     32400.
  
 Copyright (c) 1988-2019, Gaussian, Inc.  All Rights Reserved.
  
 This is part of the Gaussian(R) 16 program.  It is based on
 the Gaussian(R) 09 system (copyright 2009, Gaussian, Inc.),
 the Gaussian(R) 03 system (copyright 2003, Gaussian, Inc.),
 the Gaussian(R) 98 system (copyright 1998, Gaussian, Inc.),
 the Gaussian(R) 94 system (copyright 1995, Gaussian, Inc.),
 the Gaussian 92(TM) system (copyright 1992, Gaussian, Inc.),
 the Gaussian 90(TM) system (copyright 1990, Gaussian, Inc.),
 the Gaussian 88(TM) system (copyright 1988, Gaussian, Inc.),
 the Gaussian 86(TM) system (copyright 1986, Carnegie Mellon
 University), and the Gaussian 82(TM) system (copyright 1983,
 Carnegie Mellon University). Gaussian is a federally registered
 trademark of Gaussian, Inc.
  
 This software contains proprietary and confidential information,
 including trade secrets, belonging to Gaussian, Inc.
  
 This software is provided under written license and may be
 used, copied, transmitted, or stored only in accord with that
 written license.
  
 The following legend is applicable only to US Government
 contracts under FAR:
  
                    RESTRICTED RIGHTS LEGEND
  
 Use, reproduction and disclosure by the US Government is
 subject to restrictions as set forth in subparagraphs (a)
 and (c) of the Commercial Computer Software - Restricted
 Rights clause in FAR 52.227-19.
  
 Gaussian, Inc.
 340 Quinnipiac St., Bldg. 40, Wallingford CT 06492
  
  
 ---------------------------------------------------------------
 Warning -- This program may not be used in any manner that
 competes with the business of Gaussian, Inc. or will provide
 assistance to any competitor of Gaussian, Inc.  The licensee
 of this program is prohibited from giving any competitor of
 Gaussian, Inc. access to this program.  By using this program,
 the user acknowledges that Gaussian, Inc. is engaged in the
 business of creating and licensing software in the field of
 computational chemistry and represents and warrants to the
 licensee that it is not a competitor of Gaussian, Inc. and that
 it will not use this program in any manner prohibited above.
 ---------------------------------------------------------------
  

 Cite this work as:
 Gaussian 16, Revision C.01,
 M. J. Frisch, G. W. Trucks, H. B. Schlegel, G. E. Scuseria, 
 M. A. Robb, J. R. Cheeseman, G. Scalmani, V. Barone, 
 G. A. Petersson, H. Nakatsuji, X. Li, M. Caricato, A. V. Marenich, 
 J. Bloino, B. G. Janesko, R. Gomperts, B. Mennucci, H. P. Hratchian, 
 J. V. Ortiz, A. F. Izmaylov, J. L. Sonnenberg, D. Williams-Young, 
 F. Ding, F. Lipparini, F. Egidi, J. Goings, B. Peng, A. Petrone, 
 T. Henderson, D. Ranasinghe, V. G. Zakrzewski, J. Gao, N. Rega, 
 G. Zheng, W. Liang, M. Hada, M. Ehara, K. Toyota, R. Fukuda, 
 J. Hasegawa, M. Ishida, T. Nakajima, Y. Honda, O. Kitao, H. Nakai, 
 T. Vreven, K. Throssell, J. A. Montgomery, Jr., J. E. Peralta, 
 F. Ogliaro, M. J. Bearpark, J. J. Heyd, E. N. Brothers, K. N. Kudin, 
 V. N. Staroverov, T. A. Keith, R. Kobayashi, J. Normand, 
 K. Raghavachari, A. P. Rendell, J. C. Burant, S. S. Iyengar, 
 J. Tomasi, M. Cossi, J. M. Millam, M. Klene, C. Adamo, R. Cammi, 
 J. W. Ochterski, R. L. Martin, K. Morokuma, O. Farkas, 
 J. B. Foresman, and D. J. Fox, Gaussian, Inc., Wallingford CT, 2019.
 
 ******************************************
 Gaussian 16:  ES64L-G16RevC.01  3-Jul-2019
                12-Jan-2024 
 ******************************************
 %chk=MaxFromSimScanTSOpt.chk
 %mem=8GB
 %nprocs=16
 Will use up to   16 processors via shared memory.
 ------------------------------------------------------------------
 # opt=(calcall,ts,noeigen) freq wb97xd/def2tzvpp geom=connectivity
 ------------------------------------------------------------------
 1/5=1,10=4,11=1,18=20,26=3,38=1,57=2/1,3;
 2/9=110,12=2,17=6,18=5,40=1/2;
 3/5=44,7=202,11=2,25=1,30=1,71=2,74=-58,140=1/1,2,3;
 4//1;
 5/5=2,38=5/2;
 8/6=4,10=90,11=11/1;
 11/6=1,8=1,9=11,15=111,16=1/1,2,10;
 10/6=1/2;
 6/7=2,8=2,9=2,10=2,18=1,28=1/1;
 7/10=1,25=1/1,2,3,16;
 1/5=1,10=4,11=1,18=20,26=3/3(3);
 2/9=110/2;
 7/8=1,9=1,25=1,44=-1/16;
 99//99;
 2/9=110/2;
 3/5=44,7=202,11=2,25=1,30=1,71=2,74=-58,140=1/1,2,3;
 4/5=5,16=3,69=1/1;
 5/5=2,38=5/2;
 8/6=4,10=90,11=11/1;
 11/6=1,8=1,9=11,15=111,16=1/1,2,10;
 10/6=1/2;
 7/10=1,25=1/1,2,3,16;
 1/5=1,10=4,11=1,18=20,26=3/3(-8);
 2/9=110/2;
 6/7=2,8=2,9=2,10=2,18=1,19=2,28=1/1;
 7/8=1,9=1,25=1,44=-1/16;
 99//99;
 --------------------------------------------------------
 TS Opt from GIC sim scan of EG coming off of PL1 complex
 --------------------------------------------------------
 Symbolic Z-matrix:
 Charge = -2 Multiplicity = 1
 Si                   -0.87234   0.02613   0.04093 
 O                    -0.47452  -0.05944  -1.61957 
 O                    -0.59965  -0.46364   1.62939 
 O                    -1.50691   1.58126   0.18716 
 O                     1.09857   1.37834   0.25789 
 O                     1.02807  -1.43135  -0.11464 
 O                    -2.30303  -0.92857  -0.15995 
 C                     2.19124  -0.76572   0.15847 
 H                     3.08328  -1.23085  -0.34368 
 H                     2.43647  -0.77194   1.25147 
 C                     2.1559    0.72499  -0.25808 
 H                     2.18482   0.73571  -1.38395 
 H                     3.15065   1.15973   0.05317 
 H                    -2.40039  -0.97578  -1.10918 
 H                     0.28719  -0.65764  -1.57764 
 H                    -0.68326   2.0868    0.19095 
 H                     0.13094  -1.08023   1.50127 
 
 Add virtual bond connecting atoms H15        and O6         Dist= 3.43D+00.
 Add virtual bond connecting atoms H16        and O5         Dist= 3.63D+00.
 Add virtual bond connecting atoms H17        and O6         Dist= 3.56D+00.

 GradGradGradGradGradGradGradGradGradGradGradGradGradGradGradGradGradGrad
 Berny optimization.
 Initialization pass.
                           ----------------------------
                           !    Initial Parameters    !
                           ! (Angstroms and Degrees)  !
 --------------------------                            --------------------------
 ! Name  Definition              Value          Derivative Info.                !
 --------------------------------------------------------------------------------
 ! R1    R(1,2)                  1.7096         calculate D2E/DX2 analytically  !
 ! R2    R(1,3)                  1.6845         calculate D2E/DX2 analytically  !
 ! R3    R(1,4)                  1.686          calculate D2E/DX2 analytically  !
 ! R4    R(1,7)                  1.7317         calculate D2E/DX2 analytically  !
 ! R5    R(2,15)                 0.9694         calculate D2E/DX2 analytically  !
 ! R6    R(3,17)                 0.9646         calculate D2E/DX2 analytically  !
 ! R7    R(4,16)                 0.9664         calculate D2E/DX2 analytically  !
 ! R8    R(5,11)                 1.3458         calculate D2E/DX2 analytically  !
 ! R9    R(5,16)                 1.9187         calculate D2E/DX2 analytically  !
 ! R10   R(6,8)                  1.3677         calculate D2E/DX2 analytically  !
 ! R11   R(6,15)                 1.8133         calculate D2E/DX2 analytically  !
 ! R12   R(6,17)                 1.8813         calculate D2E/DX2 analytically  !
 ! R13   R(7,14)                 0.9554         calculate D2E/DX2 analytically  !
 ! R14   R(8,9)                  1.1244         calculate D2E/DX2 analytically  !
 ! R15   R(8,10)                 1.1202         calculate D2E/DX2 analytically  !
 ! R16   R(8,11)                 1.5482         calculate D2E/DX2 analytically  !
 ! R17   R(11,12)                1.1263         calculate D2E/DX2 analytically  !
 ! R18   R(11,13)                1.1293         calculate D2E/DX2 analytically  !
 ! A1    A(2,1,3)              149.7326         calculate D2E/DX2 analytically  !
 ! A2    A(2,1,4)              102.5912         calculate D2E/DX2 analytically  !
 ! A3    A(2,1,7)               92.98           calculate D2E/DX2 analytically  !
 ! A4    A(3,1,4)              104.3193         calculate D2E/DX2 analytically  !
 ! A5    A(3,1,7)               94.7514         calculate D2E/DX2 analytically  !
 ! A6    A(4,1,7)              101.9835         calculate D2E/DX2 analytically  !
 ! A7    A(1,2,15)              99.8872         calculate D2E/DX2 analytically  !
 ! A8    A(1,3,17)             100.5572         calculate D2E/DX2 analytically  !
 ! A9    A(1,4,16)              99.327          calculate D2E/DX2 analytically  !
 ! A10   A(11,5,16)            153.5768         calculate D2E/DX2 analytically  !
 ! A11   A(8,6,15)             107.5137         calculate D2E/DX2 analytically  !
 ! A12   A(8,6,17)              98.2333         calculate D2E/DX2 analytically  !
 ! A13   A(15,6,17)            114.7421         calculate D2E/DX2 analytically  !
 ! A14   A(1,7,14)             103.1021         calculate D2E/DX2 analytically  !
 ! A15   A(6,8,9)              112.5947         calculate D2E/DX2 analytically  !
 ! A16   A(6,8,10)             112.2293         calculate D2E/DX2 analytically  !
 ! A17   A(6,8,11)             113.2945         calculate D2E/DX2 analytically  !
 ! A18   A(9,8,10)             105.0575         calculate D2E/DX2 analytically  !
 ! A19   A(9,8,11)             107.2329         calculate D2E/DX2 analytically  !
 ! A20   A(10,8,11)            105.835          calculate D2E/DX2 analytically  !
 ! A21   A(5,11,8)             112.4726         calculate D2E/DX2 analytically  !
 ! A22   A(5,11,12)            113.5044         calculate D2E/DX2 analytically  !
 ! A23   A(5,11,13)            113.546          calculate D2E/DX2 analytically  !
 ! A24   A(8,11,12)            106.1133         calculate D2E/DX2 analytically  !
 ! A25   A(8,11,13)            106.045          calculate D2E/DX2 analytically  !
 ! A26   A(12,11,13)           104.4307         calculate D2E/DX2 analytically  !
 ! A27   A(2,15,6)             128.2602         calculate D2E/DX2 analytically  !
 ! A28   A(4,16,5)             126.7599         calculate D2E/DX2 analytically  !
 ! A29   A(3,17,6)             126.4843         calculate D2E/DX2 analytically  !
 ! D1    D(3,1,2,15)            -3.3635         calculate D2E/DX2 analytically  !
 ! D2    D(4,1,2,15)           148.9531         calculate D2E/DX2 analytically  !
 ! D3    D(7,1,2,15)          -108.0638         calculate D2E/DX2 analytically  !
 ! D4    D(2,1,3,17)             0.1115         calculate D2E/DX2 analytically  !
 ! D5    D(4,1,3,17)          -151.9871         calculate D2E/DX2 analytically  !
 ! D6    D(7,1,3,17)           104.348          calculate D2E/DX2 analytically  !
 ! D7    D(2,1,4,16)           -77.7914         calculate D2E/DX2 analytically  !
 ! D8    D(3,1,4,16)            88.2231         calculate D2E/DX2 analytically  !
 ! D9    D(7,1,4,16)          -173.638          calculate D2E/DX2 analytically  !
 ! D10   D(2,1,7,14)           -10.7572         calculate D2E/DX2 analytically  !
 ! D11   D(3,1,7,14)          -161.4681         calculate D2E/DX2 analytically  !
 ! D12   D(4,1,7,14)            92.7873         calculate D2E/DX2 analytically  !
 ! D13   D(1,2,15,6)             0.0037         calculate D2E/DX2 analytically  !
 ! D14   D(1,3,17,6)             4.9554         calculate D2E/DX2 analytically  !
 ! D15   D(1,4,16,5)            -7.3339         calculate D2E/DX2 analytically  !
 ! D16   D(16,5,11,8)          -96.1151         calculate D2E/DX2 analytically  !
 ! D17   D(16,5,11,12)          24.377          calculate D2E/DX2 analytically  !
 ! D18   D(16,5,11,13)         143.452          calculate D2E/DX2 analytically  !
 ! D19   D(11,5,16,4)           70.0219         calculate D2E/DX2 analytically  !
 ! D20   D(15,6,8,9)           -91.6084         calculate D2E/DX2 analytically  !
 ! D21   D(15,6,8,10)          150.0937         calculate D2E/DX2 analytically  !
 ! D22   D(15,6,8,11)           30.2985         calculate D2E/DX2 analytically  !
 ! D23   D(17,6,8,9)           149.1094         calculate D2E/DX2 analytically  !
 ! D24   D(17,6,8,10)           30.8116         calculate D2E/DX2 analytically  !
 ! D25   D(17,6,8,11)          -88.9836         calculate D2E/DX2 analytically  !
 ! D26   D(8,6,15,2)          -104.715          calculate D2E/DX2 analytically  !
 ! D27   D(17,6,15,2)            3.3905         calculate D2E/DX2 analytically  !
 ! D28   D(8,6,17,3)           106.1538         calculate D2E/DX2 analytically  !
 ! D29   D(15,6,17,3)           -7.5172         calculate D2E/DX2 analytically  !
 ! D30   D(6,8,11,5)            53.361          calculate D2E/DX2 analytically  !
 ! D31   D(6,8,11,12)          -71.3015         calculate D2E/DX2 analytically  !
 ! D32   D(6,8,11,13)          178.0278         calculate D2E/DX2 analytically  !
 ! D33   D(9,8,11,5)           178.2174         calculate D2E/DX2 analytically  !
 ! D34   D(9,8,11,12)           53.5548         calculate D2E/DX2 analytically  !
 ! D35   D(9,8,11,13)          -57.1159         calculate D2E/DX2 analytically  !
 ! D36   D(10,8,11,5)          -70.0235         calculate D2E/DX2 analytically  !
 ! D37   D(10,8,11,12)         165.3139         calculate D2E/DX2 analytically  !
 ! D38   D(10,8,11,13)          54.6432         calculate D2E/DX2 analytically  !
 --------------------------------------------------------------------------------
 Trust Radius=3.00D-01 FncErr=1.00D-07 GrdErr=1.00D-06 EigMax=2.50D+02 EigMin=1.00D-04
 Number of steps in this run=     95 maximum allowed number of steps=    102.
 Search for a saddle point of order  1.
 GradGradGradGradGradGradGradGradGradGradGradGradGradGradGradGradGradGrad

                          Input orientation:                          
 ---------------------------------------------------------------------
 Center     Atomic      Atomic             Coordinates (Angstroms)
 Number     Number       Type             X           Y           Z
 ---------------------------------------------------------------------
      1         14           0       -0.872336    0.026130    0.040925
      2          8           0       -0.474520   -0.059439   -1.619571
      3          8           0       -0.599654   -0.463642    1.629394
      4          8           0       -1.506907    1.581264    0.187163
      5          8           0        1.098568    1.378344    0.257890
      6          8           0        1.028070   -1.431354   -0.114639
      7          8           0       -2.303031   -0.928573   -0.159950
      8          6           0        2.191239   -0.765723    0.158473
      9          1           0        3.083279   -1.230848   -0.343680
     10          1           0        2.436465   -0.771943    1.251474
     11          6           0        2.155895    0.724985   -0.258082
     12          1           0        2.184823    0.735712   -1.383949
     13          1           0        3.150648    1.159727    0.053167
     14          1           0       -2.400389   -0.975775   -1.109181
     15          1           0        0.287194   -0.657637   -1.577642
     16          1           0       -0.683263    2.086800    0.190950
     17          1           0        0.130938   -1.080230    1.501269
 ---------------------------------------------------------------------
                    Distance matrix (angstroms):
                    1          2          3          4          5
     1  Si   0.000000
     2  O    1.709628   0.000000
     3  O    1.684478   3.276402   0.000000
     4  O    1.685974   2.649909   2.661725   0.000000
     5  O    2.400004   2.840191   2.856203   2.614322   0.000000
     6  O    2.400001   2.530760   2.574413   3.948805   2.835163
     7  O    1.731675   2.495865   2.513843   2.655858   4.131263
     8  C    3.166440   3.281242   3.169218   4.380120   2.408493
     9  H    4.168310   3.957023   4.248014   5.409212   3.332994
    10  H    3.612549   4.150228   3.075043   4.713865   2.720462
    11  C    3.122177   3.063994   3.545201   3.787819   1.345751
    12  H    3.446737   2.785658   4.274576   4.100271   2.070884
    13  H    4.179664   4.174477   4.380021   4.678511   2.073822
    14  H    2.159052   2.192975   3.317336   3.002876   4.433222
    15  H    2.105186   0.969436   3.333049   3.368384   2.858798
    16  H    2.074757   2.815653   2.929312   0.966421   1.918675
    17  H    2.088826   3.338897   0.964552   3.390127   2.920083
                    6          7          8          9         10
     6  O    0.000000
     7  O    3.369136   0.000000
     8  C    1.367705   4.508478   0.000000
     9  H    2.077630   5.397913   1.124382   0.000000
    10  H    2.069943   4.947673   1.120190   1.781426   0.000000
    11  C    2.437696   4.756670   1.548218   2.166253   2.144358
    12  H    2.765032   4.940532   2.152537   2.399321   3.046605
    13  H    3.353684   5.843717   2.153814   2.424227   2.382718
    14  H    3.598749   0.955377   4.768031   5.542713   5.386037
    15  H    1.813260   2.965219   2.578985   3.109554   3.554761
    16  H    3.924214   3.440822   4.049778   5.047718   4.362319
    17  H    1.881301   2.950738   2.479285   3.484658   2.339422
                   11         12         13         14         15
    11  C    0.000000
    12  H    1.126290   0.000000
    13  H    1.129341   1.782669   0.000000
    14  H    4.937274   4.901924   6.060151   0.000000
    15  H    2.672999   2.362188   3.763206   2.746592   0.000000
    16  H    3.180721   3.540009   3.946812   3.744092   3.406118
    17  H    3.233352   3.980022   4.029027   3.637716   3.111703
                   16         17
    16  H    0.000000
    17  H    3.522774   0.000000
 Stoichiometry    C2H8O6Si(2-)
 Framework group  C1[X(C2H8O6Si)]
 Deg. of freedom    45
 Full point group                 C1      NOp   1
 Largest Abelian subgroup         C1      NOp   1
 Largest concise Abelian subgroup C1      NOp   1
                         Standard orientation:                         
 ---------------------------------------------------------------------
 Center     Atomic      Atomic             Coordinates (Angstroms)
 Number     Number       Type             X           Y           Z
 ---------------------------------------------------------------------
      1         14           0        0.872336    0.026130   -0.040925
      2          8           0        0.474520   -0.059439    1.619571
      3          8           0        0.599654   -0.463642   -1.629394
      4          8           0        1.506907    1.581264   -0.187163
      5          8           0       -1.098568    1.378344   -0.257890
      6          8           0       -1.028070   -1.431354    0.114639
      7          8           0        2.303031   -0.928573    0.159950
      8          6           0       -2.191239   -0.765723   -0.158473
      9          1           0       -3.083279   -1.230848    0.343680
     10          1           0       -2.436465   -0.771943   -1.251474
     11          6           0       -2.155895    0.724985    0.258082
     12          1           0       -2.184823    0.735712    1.383949
     13          1           0       -3.150648    1.159727   -0.053167
     14          1           0        2.400389   -0.975775    1.109181
     15          1           0       -0.287194   -0.657637    1.577642
     16          1           0        0.683263    2.086800   -0.190950
     17          1           0       -0.130938   -1.080230   -1.501269
 ---------------------------------------------------------------------
 Rotational constants (GHZ):           2.0860714           1.1612114           1.0473338
 Standard basis: def2TZVPP (5D, 7F)
 There are   456 symmetry adapted cartesian basis functions of A   symmetry.
 There are   402 symmetry adapted basis functions of A   symmetry.
   402 basis functions,   613 primitive gaussians,   456 cartesian basis functions
    42 alpha electrons       42 beta electrons
       nuclear repulsion energy       648.1492625389 Hartrees.
 NAtoms=   17 NActive=   17 NUniq=   17 SFac= 1.00D+00 NAtFMM=   60 NAOKFM=F Big=F
 Integral buffers will be    131072 words long.
 Raffenetti 2 integral format.
 Two-electron integral symmetry is turned on.
 Nuclear repulsion after empirical dispersion term =      648.1401344448 Hartrees.
 One-electron integrals computed using PRISM.
   1 Symmetry operations used in ECPInt.
 ECPInt:  NShTT=   11325 NPrTT=   31861 LenC2=   10942 LenP2D=   24298.
 LDataN:  DoStor=T MaxTD1= 6 Len=  172
 NBasis=   402 RedAO= T EigKep=  3.20D-04  NBF=   402
 NBsUse=   402 1.00D-06 EigRej= -1.00D+00 NBFU=   402
 ExpMin= 7.01D-02 ExpMax= 4.48D+04 ExpMxC= 1.53D+03 IAcc=3 IRadAn=         5 AccDes= 0.00D+00
 Harris functional with IExCor= 4639 and IRadAn=       5 diagonalized for initial guess.
 HarFok:  IExCor= 4639 AccDes= 0.00D+00 IRadAn=         5 IDoV= 1 UseB2=F ITyADJ=14
 ICtDFT=  3500011 ScaDFX=  1.000000  1.000000  1.000000  1.000000
 FoFCou: FMM=F IPFlag=           0 FMFlag=      100000 FMFlg1=           0
         NFxFlg=           0 DoJE=T BraDBF=F KetDBF=T FulRan=T
         wScrn=  0.000000 ICntrl=       500 IOpCl=  0 I1Cent=   200000004 NGrid=           0
         NMat0=    1 NMatS0=      1 NMatT0=    0 NMatD0=    1 NMtDS0=    0 NMtDT0=    0
 Petite list used in FoFCou.
 Requested convergence on RMS density matrix=1.00D-08 within 128 cycles.
 Requested convergence on MAX density matrix=1.00D-06.
 Requested convergence on             energy=1.00D-06.
 No special actions if energy rises.
 Integral accuracy reduced to 1.0D-05 until final iterations.
 Initial convergence to 1.0D-05 achieved.  Increase integral accuracy.
 SCF Done:  E(RwB97XD) =  -822.041026194     A.U. after   16 cycles
            NFock= 16  Conv=0.50D-08     -V/T= 2.0033
 DoSCS=F DFT=T ScalE2(SS,OS)=  1.000000  1.000000
 Range of M.O.s used for correlation:     1   402
 NBasis=   402 NAE=    42 NBE=    42 NFC=     0 NFV=     0
 NROrb=    402 NOA=    42 NOB=    42 NVA=   360 NVB=   360

 **** Warning!!: The largest alpha MO coefficient is  0.12366761D+02

   1 Symmetry operations used in ECPInt.
 ECPInt:  NShTT=   11325 NPrTT=   31861 LenC2=   10942 LenP2D=   24298.
 LDataN:  DoStor=T MaxTD1= 7 Len=  274
 Number of processors reduced to  13 by ecpmxn.
 Symmetrizing basis deriv contribution to polar:
 IMax=3 JMax=2 DiffMx= 0.00D+00
 G2DrvN: will do    18 centers at a time, making    1 passes.
 Calling FoFCou, ICntrl=  3107 FMM=F I1Cent=   0 AccDes= 0.00D+00.
 End of G2Drv F.D. properties file   721 does not exist.
 End of G2Drv F.D. properties file   722 does not exist.
 End of G2Drv F.D. properties file   788 does not exist.
          IDoAtm=11111111111111111
          Differentiating once with respect to electric field.
                with respect to dipole field.
          Differentiating once with respect to nuclear coordinates.
 CalDSu exits because no D1Ps are significant.
          There are    54 degrees of freedom in the 1st order CPHF.  IDoFFX=6 NUNeed=     3.
     51 vectors produced by pass  0 Test12= 2.80D-14 1.85D-09 XBig12= 3.94D+01 1.80D+00.
 AX will form    51 AO Fock derivatives at one time.
     51 vectors produced by pass  1 Test12= 2.80D-14 1.85D-09 XBig12= 3.50D+00 3.88D-01.
     51 vectors produced by pass  2 Test12= 2.80D-14 1.85D-09 XBig12= 9.06D-02 4.80D-02.
     51 vectors produced by pass  3 Test12= 2.80D-14 1.85D-09 XBig12= 1.81D-03 6.92D-03.
     51 vectors produced by pass  4 Test12= 2.80D-14 1.85D-09 XBig12= 3.25D-05 7.07D-04.
     51 vectors produced by pass  5 Test12= 2.80D-14 1.85D-09 XBig12= 3.70D-07 7.99D-05.
     51 vectors produced by pass  6 Test12= 2.80D-14 1.85D-09 XBig12= 2.99D-09 7.08D-06.
     29 vectors produced by pass  7 Test12= 2.80D-14 1.85D-09 XBig12= 1.96D-11 6.43D-07.
      4 vectors produced by pass  8 Test12= 2.80D-14 1.85D-09 XBig12= 1.27D-13 3.73D-08.
      3 vectors produced by pass  9 Test12= 2.80D-14 1.85D-09 XBig12= 9.15D-16 3.87D-09.
 InvSVY:  IOpt=1 It=  1 EMax= 3.74D-15
 Solved reduced A of dimension   393 with    54 vectors.
 Isotropic polarizability for W=    0.000000       89.47 Bohr**3.
 End of Minotr F.D. properties file   721 does not exist.
 End of Minotr F.D. properties file   722 does not exist.
 End of Minotr F.D. properties file   788 does not exist.

 **********************************************************************

            Population analysis using the SCF Density.

 **********************************************************************

 Orbital symmetries:
       Occupied  (A) (A) (A) (A) (A) (A) (A) (A) (A) (A) (A) (A)
                 (A) (A) (A) (A) (A) (A) (A) (A) (A) (A) (A) (A)
                 (A) (A) (A) (A) (A) (A) (A) (A) (A) (A) (A) (A)
                 (A) (A) (A) (A) (A) (A)
       Virtual   (A) (A) (A) (A) (A) (A) (A) (A) (A) (A) (A) (A)
                 (A) (A) (A) (A) (A) (A) (A) (A) (A) (A) (A) (A)
                 (A) (A) (A) (A) (A) (A) (A) (A) (A) (A) (A) (A)
                 (A) (A) (A) (A) (A) (A) (A) (A) (A) (A) (A) (A)
                 (A) (A) (A) (A) (A) (A) (A) (A) (A) (A) (A) (A)
                 (A) (A) (A) (A) (A) (A) (A) (A) (A) (A) (A) (A)
                 (A) (A) (A) (A) (A) (A) (A) (A) (A) (A) (A) (A)
                 (A) (A) (A) (A) (A) (A) (A) (A) (A) (A) (A) (A)
                 (A) (A) (A) (A) (A) (A) (A) (A) (A) (A) (A) (A)
                 (A) (A) (A) (A) (A) (A) (A) (A) (A) (A) (A) (A)
                 (A) (A) (A) (A) (A) (A) (A) (A) (A) (A) (A) (A)
                 (A) (A) (A) (A) (A) (A) (A) (A) (A) (A) (A) (A)
                 (A) (A) (A) (A) (A) (A) (A) (A) (A) (A) (A) (A)
                 (A) (A) (A) (A) (A) (A) (A) (A) (A) (A) (A) (A)
                 (A) (A) (A) (A) (A) (A) (A) (A) (A) (A) (A) (A)
                 (A) (A) (A) (A) (A) (A) (A) (A) (A) (A) (A) (A)
                 (A) (A) (A) (A) (A) (A) (A) (A) (A) (A) (A) (A)
                 (A) (A) (A) (A) (A) (A) (A) (A) (A) (A) (A) (A)
                 (A) (A) (A) (A) (A) (A) (A) (A) (A) (A) (A) (A)
                 (A) (A) (A) (A) (A) (A) (A) (A) (A) (A) (A) (A)
                 (A) (A) (A) (A) (A) (A) (A) (A) (A) (A) (A) (A)
                 (A) (A) (A) (A) (A) (A) (A) (A) (A) (A) (A) (A)
                 (A) (A) (A) (A) (A) (A) (A) (A) (A) (A) (A) (A)
                 (A) (A) (A) (A) (A) (A) (A) (A) (A) (A) (A) (A)
                 (A) (A) (A) (A) (A) (A) (A) (A) (A) (A) (A) (A)
                 (A) (A) (A) (A) (A) (A) (A) (A) (A) (A) (A) (A)
                 (A) (A) (A) (A) (A) (A) (A) (A) (A) (A) (A) (A)
                 (A) (A) (A) (A) (A) (A) (A) (A) (A) (A) (A) (A)
                 (A) (A) (A) (A) (A) (A) (A) (A) (A) (A) (A) (A)
                 (A) (A) (A) (A) (A) (A) (A) (A) (A) (A) (A) (A)
 The electronic state is 1-A.
 Alpha  occ. eigenvalues --  -65.97981 -18.89819 -18.88899 -18.88584 -18.88316
 Alpha  occ. eigenvalues --  -18.85056 -18.83359  -9.99742  -9.99210  -5.08900
 Alpha  occ. eigenvalues --   -3.43580  -3.43454  -3.43223  -0.78038  -0.74272
 Alpha  occ. eigenvalues --   -0.73879  -0.73717  -0.71546  -0.69237  -0.45897
 Alpha  occ. eigenvalues --   -0.33602  -0.29578  -0.25139  -0.23019  -0.21943
 Alpha  occ. eigenvalues --   -0.21421  -0.20312  -0.18805  -0.15427  -0.14364
 Alpha  occ. eigenvalues --   -0.12117  -0.11834  -0.10600  -0.09764  -0.07448
 Alpha  occ. eigenvalues --   -0.07101  -0.04587  -0.04165  -0.00404   0.01203
 Alpha  occ. eigenvalues --    0.02723   0.04411
 Alpha virt. eigenvalues --    0.39058   0.40913   0.42283   0.44210   0.45295
 Alpha virt. eigenvalues --    0.46937   0.48780   0.50330   0.51435   0.52512
 Alpha virt. eigenvalues --    0.53723   0.54250   0.55570   0.56786   0.57611
 Alpha virt. eigenvalues --    0.59579   0.63793   0.69167   0.69925   0.70757
 Alpha virt. eigenvalues --    0.71527   0.71736   0.72758   0.73192   0.74596
 Alpha virt. eigenvalues --    0.75557   0.76407   0.77336   0.77732   0.78551
 Alpha virt. eigenvalues --    0.79803   0.81414   0.82839   0.83343   0.83792
 Alpha virt. eigenvalues --    0.84264   0.86721   0.88290   0.89220   0.90246
 Alpha virt. eigenvalues --    0.91332   0.92586   0.93223   0.95349   0.97271
 Alpha virt. eigenvalues --    0.97778   0.98583   0.99358   1.01502   1.03895
 Alpha virt. eigenvalues --    1.04692   1.06188   1.07273   1.08601   1.09689
 Alpha virt. eigenvalues --    1.10598   1.11369   1.12721   1.15342   1.17419
 Alpha virt. eigenvalues --    1.18422   1.19655   1.20278   1.21609   1.24188
 Alpha virt. eigenvalues --    1.25637   1.28691   1.29427   1.31739   1.32651
 Alpha virt. eigenvalues --    1.33778   1.34666   1.36408   1.36742   1.40821
 Alpha virt. eigenvalues --    1.41645   1.43845   1.45203   1.45587   1.47712
 Alpha virt. eigenvalues --    1.48999   1.50762   1.51927   1.52793   1.53860
 Alpha virt. eigenvalues --    1.56796   1.58891   1.60805   1.62057   1.62986
 Alpha virt. eigenvalues --    1.64430   1.66230   1.67233   1.69168   1.71018
 Alpha virt. eigenvalues --    1.71895   1.72777   1.75047   1.76623   1.78440
 Alpha virt. eigenvalues --    1.80728   1.81181   1.83830   1.84796   1.84850
 Alpha virt. eigenvalues --    1.87558   1.91293   1.92892   1.93826   1.96999
 Alpha virt. eigenvalues --    2.00996   2.07050   2.09008   2.10405   2.11426
 Alpha virt. eigenvalues --    2.14268   2.18559   2.21170   2.23484   2.25941
 Alpha virt. eigenvalues --    2.27809   2.30934   2.31349   2.32543   2.34119
 Alpha virt. eigenvalues --    2.36171   2.36860   2.39405   2.40458   2.42047
 Alpha virt. eigenvalues --    2.43082   2.45828   2.47259   2.49456   2.50310
 Alpha virt. eigenvalues --    2.52231   2.53526   2.54967   2.56748   2.61207
 Alpha virt. eigenvalues --    2.63927   2.65001   2.67732   2.70318   2.73451
 Alpha virt. eigenvalues --    2.75585   2.78657   2.79286   2.81072   2.82755
 Alpha virt. eigenvalues --    2.89850   2.91081   2.95059   2.99210   3.03214
 Alpha virt. eigenvalues --    3.03826   3.05363   3.08916   3.10863   3.15892
 Alpha virt. eigenvalues --    3.16609   3.18874   3.21802   3.22489   3.23007
 Alpha virt. eigenvalues --    3.27599   3.28628   3.32186   3.34359   3.36284
 Alpha virt. eigenvalues --    3.39052   3.39975   3.41875   3.42889   3.44075
 Alpha virt. eigenvalues --    3.45822   3.47464   3.49360   3.50762   3.51716
 Alpha virt. eigenvalues --    3.53237   3.56515   3.58622   3.62672   3.65568
 Alpha virt. eigenvalues --    3.66370   3.68120   3.68584   3.71737   3.72793
 Alpha virt. eigenvalues --    3.74674   3.76685   3.77963   3.79062   3.82910
 Alpha virt. eigenvalues --    3.84572   3.85413   3.87175   3.89210   3.90808
 Alpha virt. eigenvalues --    3.93049   3.93856   3.95979   3.97027   3.98718
 Alpha virt. eigenvalues --    3.99920   4.01195   4.02105   4.05223   4.06847
 Alpha virt. eigenvalues --    4.10091   4.10722   4.11539   4.15656   4.18092
 Alpha virt. eigenvalues --    4.19445   4.20897   4.24419   4.26450   4.28340
 Alpha virt. eigenvalues --    4.34658   4.36232   4.37402   4.38454   4.40799
 Alpha virt. eigenvalues --    4.41818   4.43356   4.44895   4.45708   4.47114
 Alpha virt. eigenvalues --    4.47597   4.51449   4.53650   4.55504   4.56040
 Alpha virt. eigenvalues --    4.59271   4.60254   4.64714   4.65323   4.65673
 Alpha virt. eigenvalues --    4.67536   4.68034   4.69347   4.71560   4.74911
 Alpha virt. eigenvalues --    4.76832   4.77629   4.80528   4.86332   4.91532
 Alpha virt. eigenvalues --    4.97160   4.98891   5.01160   5.04454   5.08736
 Alpha virt. eigenvalues --    5.11384   5.17966   5.20828   5.22446   5.29058
 Alpha virt. eigenvalues --    5.30265   5.32117   5.33226   5.33975   5.37203
 Alpha virt. eigenvalues --    5.39843   5.40379   5.42869   5.46567   5.52999
 Alpha virt. eigenvalues --    5.58055   5.60086   5.61505   5.63682   5.66469
 Alpha virt. eigenvalues --    5.69460   5.73004   5.73076   5.75162   5.78233
 Alpha virt. eigenvalues --    5.79268   5.80013   5.83214   5.83690   5.85541
 Alpha virt. eigenvalues --    5.87215   5.89642   5.92146   5.94558   5.96226
 Alpha virt. eigenvalues --    5.98604   5.99066   5.99480   6.01886   6.02862
 Alpha virt. eigenvalues --    6.09871   6.12037   6.13730   6.25433   6.34967
 Alpha virt. eigenvalues --    6.43597   6.51212   6.53318   6.64335   6.66682
 Alpha virt. eigenvalues --    6.70090   6.84027   6.85064   6.87662   6.89030
 Alpha virt. eigenvalues --    6.91027   6.92442   6.93970   6.95159   6.96156
 Alpha virt. eigenvalues --    6.98551   7.01562   7.03868   7.05190   7.05620
 Alpha virt. eigenvalues --    7.06602   7.08389   7.09669   7.11930   7.12931
 Alpha virt. eigenvalues --    7.14761   7.18483   7.18704   7.22700   7.26154
 Alpha virt. eigenvalues --    7.29685   7.31114   7.33559   7.34976   7.44726
 Alpha virt. eigenvalues --    7.46012   7.48920   7.52626   7.54931   7.55880
 Alpha virt. eigenvalues --    7.58959   7.60883   7.62923   7.65079   7.77257
 Alpha virt. eigenvalues --    7.81758   7.88234   7.94549   8.00292   8.06270
 Alpha virt. eigenvalues --    8.13606  12.40060  23.74879  23.84291  44.17637
 Alpha virt. eigenvalues --   44.19242  44.28722  44.30598  44.49697  44.52959
          Condensed to atoms (all electrons):
               1          2          3          4          5          6
     1  Si  11.458572   0.340748   0.387436   0.421149   0.150342   0.121015
     2  O    0.340748   8.097631  -0.001143  -0.043989  -0.024433  -0.079220
     3  O    0.387436  -0.001143   7.988018  -0.048181  -0.023825  -0.070168
     4  O    0.421149  -0.043989  -0.048181   7.991235  -0.048497  -0.000419
     5  O    0.150342  -0.024433  -0.023825  -0.048497   8.452813  -0.000446
     6  O    0.121015  -0.079220  -0.070168  -0.000419  -0.000446   8.569012
     7  O    0.431130  -0.084662  -0.069076  -0.046571  -0.000053  -0.007483
     8  C   -0.059883   0.008265   0.025265  -0.002278  -0.187016   0.337752
     9  H    0.008365  -0.000972  -0.001283  -0.000007   0.014895  -0.035744
    10  H    0.012135  -0.002308   0.009970  -0.000035   0.026247  -0.086242
    11  C   -0.051824   0.020572  -0.011673   0.003645   0.442660  -0.166851
    12  H    0.012131   0.002571  -0.000475   0.000532  -0.097078   0.013534
    13  H    0.007217  -0.000429  -0.000502  -0.000419  -0.040024   0.015380
    14  H   -0.046714   0.018685   0.004150   0.001116   0.000107   0.001132
    15  H   -0.038978   0.309263   0.000583   0.001816   0.004846   0.068097
    16  H   -0.057200   0.003373   0.003709   0.315181   0.034650  -0.001564
    17  H   -0.050730   0.000021   0.319441   0.002475  -0.000481   0.053185
               7          8          9         10         11         12
     1  Si   0.431130  -0.059883   0.008365   0.012135  -0.051824   0.012131
     2  O   -0.084662   0.008265  -0.000972  -0.002308   0.020572   0.002571
     3  O   -0.069076   0.025265  -0.001283   0.009970  -0.011673  -0.000475
     4  O   -0.046571  -0.002278  -0.000007  -0.000035   0.003645   0.000532
     5  O   -0.000053  -0.187016   0.014895   0.026247   0.442660  -0.097078
     6  O   -0.007483   0.337752  -0.035744  -0.086242  -0.166851   0.013534
     7  O    8.018567   0.000443  -0.000046   0.000071  -0.001212   0.000101
     8  C    0.000443   5.249915   0.138785   0.307208   0.229082  -0.192099
     9  H   -0.000046   0.138785   1.079179  -0.091913  -0.039871   0.016309
    10  H    0.000071   0.307208  -0.091913   1.048256  -0.148434   0.037818
    11  C   -0.001212   0.229082  -0.039871  -0.148434   5.058711   0.336903
    12  H    0.000101  -0.192099   0.016309   0.037818   0.336903   1.098079
    13  H   -0.000004  -0.031200   0.023561  -0.008568   0.134645  -0.135068
    14  H    0.293973  -0.000441   0.000041   0.000060  -0.000476   0.000159
    15  H    0.001295  -0.001415  -0.003225   0.007742  -0.032941   0.016395
    16  H    0.002185   0.006532  -0.000417  -0.000671   0.005171  -0.003634
    17  H    0.000915  -0.006346   0.001387  -0.022536   0.014775  -0.001402
              13         14         15         16         17
     1  Si   0.007217  -0.046714  -0.038978  -0.057200  -0.050730
     2  O   -0.000429   0.018685   0.309263   0.003373   0.000021
     3  O   -0.000502   0.004150   0.000583   0.003709   0.319441
     4  O   -0.000419   0.001116   0.001816   0.315181   0.002475
     5  O   -0.040024   0.000107   0.004846   0.034650  -0.000481
     6  O    0.015380   0.001132   0.068097  -0.001564   0.053185
     7  O   -0.000004   0.293973   0.001295   0.002185   0.000915
     8  C   -0.031200  -0.000441  -0.001415   0.006532  -0.006346
     9  H    0.023561   0.000041  -0.003225  -0.000417   0.001387
    10  H   -0.008568   0.000060   0.007742  -0.000671  -0.022536
    11  C    0.134645  -0.000476  -0.032941   0.005171   0.014775
    12  H   -0.135068   0.000159   0.016395  -0.003634  -0.001402
    13  H    1.164965   0.000004   0.000671  -0.001392  -0.000482
    14  H    0.000004   0.607089   0.002052  -0.001063  -0.001075
    15  H    0.000671   0.002052   0.483629  -0.001371  -0.003564
    16  H   -0.001392  -0.001063  -0.001371   0.503778   0.000013
    17  H   -0.000482  -0.001075  -0.003564   0.000013   0.503875
 Mulliken charges:
               1
     1  Si   0.955088
     2  O   -0.563973
     3  O   -0.512245
     4  O   -0.546752
     5  O   -0.704707
     6  O   -0.730969
     7  O   -0.539572
     8  C    0.177431
     9  H   -0.109043
    10  H   -0.088800
    11  C    0.207119
    12  H   -0.104776
    13  H   -0.128356
    14  H    0.121198
    15  H    0.185107
    16  H    0.192720
    17  H    0.190530
 Sum of Mulliken charges =  -2.00000
 Mulliken charges with hydrogens summed into heavy atoms:
               1
     1  Si   0.955088
     2  O   -0.378866
     3  O   -0.321715
     4  O   -0.354032
     5  O   -0.704707
     6  O   -0.730969
     7  O   -0.418374
     8  C   -0.020412
    11  C   -0.026013
 APT charges:
               1
     1  Si   2.429402
     2  O   -0.968715
     3  O   -0.946592
     4  O   -0.946017
     5  O   -1.133379
     6  O   -1.103327
     7  O   -0.900850
     8  C    0.699610
     9  H   -0.282299
    10  H   -0.225954
    11  C    0.767633
    12  H   -0.241989
    13  H   -0.305479
    14  H    0.217439
    15  H    0.322837
    16  H    0.321506
    17  H    0.296173
 Sum of APT charges =  -2.00000
 APT charges with hydrogens summed into heavy atoms:
               1
     1  Si   2.429402
     2  O   -0.645878
     3  O   -0.650419
     4  O   -0.624511
     5  O   -1.133379
     6  O   -1.103327
     7  O   -0.683411
     8  C    0.191357
    11  C    0.220165
 Electronic spatial extent (au):  <R**2>=           1331.5293
 Charge=             -2.0000 electrons
 Dipole moment (field-independent basis, Debye):
    X=             -0.2068    Y=             -0.8578    Z=              1.3320  Tot=              1.5978
 Quadrupole moment (field-independent basis, Debye-Ang):
   XX=            -98.8354   YY=            -84.2023   ZZ=            -77.7999
   XY=              0.0551   XZ=              3.5018   YZ=             -0.5418
 Traceless Quadrupole moment (field-independent basis, Debye-Ang):
   XX=            -11.8895   YY=              2.7436   ZZ=              9.1459
   XY=              0.0551   XZ=              3.5018   YZ=             -0.5418
 Octapole moment (field-independent basis, Debye-Ang**2):
  XXX=             33.3400  YYY=              2.6328  ZZZ=              1.2139  XYY=             12.6050
  XXY=             -1.2366  XXZ=              7.6949  XZZ=              4.7224  YZZ=             -4.5065
  YYZ=              1.4060  XYZ=             -4.2250
 Hexadecapole moment (field-independent basis, Debye-Ang**3):
 XXXX=          -1273.6964 YYYY=           -481.4131 ZZZZ=           -368.2316 XXXY=              4.7329
 XXXZ=             27.6951 YYYX=             -9.7978 YYYZ=              2.2186 ZZZX=             10.3834
 ZZZY=            -10.4395 XXYY=           -313.5148 XXZZ=           -233.8789 YYZZ=           -126.3908
 XXYZ=             -8.7736 YYXZ=              6.2969 ZZXY=              0.7287
 N-N= 6.481401344448D+02 E-N=-3.273352808547D+03  KE= 8.193216649538D+02
  Exact polarizability:     108.737       0.574      78.134      -0.047       0.140      81.527
 Approx polarizability:     100.389       1.340      82.809      -0.582      -1.425      88.338
   1 Symmetry operations used in ECPInt.
 ECPInt:  NShTT=   11325 NPrTT=   31861 LenC2=   10942 LenP2D=   24298.
 LDataN:  DoStor=T MaxTD1= 8 Len=  415
 Calling FoFJK, ICntrl=    100127 FMM=F ISym2X=0 I1Cent= 0 IOpClX= 0 NMat=1 NMatS=1 NMatT=0.
 ***** Axes restored to original set *****
 -------------------------------------------------------------------
 Center     Atomic                   Forces (Hartrees/Bohr)
 Number     Number              X              Y              Z
 -------------------------------------------------------------------
      1       14          -0.000265153    0.009061983    0.001194857
      2        8          -0.000001584   -0.000011415   -0.000003346
      3        8           0.000009916   -0.000006775   -0.000001913
      4        8          -0.000002679   -0.000004318    0.000004522
      5        8          -0.006104944   -0.004192065   -0.000671134
      6        8           0.006400745   -0.004874534   -0.000520994
      7        8          -0.000012185    0.000012704    0.000005846
      8        6          -0.000011865    0.000009015   -0.000010190
      9        1           0.000003234    0.000003014   -0.000005736
     10        1           0.000002677    0.000003192   -0.000002638
     11        6           0.000012514   -0.000011050   -0.000004707
     12        1          -0.000006396    0.000005400    0.000001522
     13        1          -0.000004871    0.000003523   -0.000003182
     14        1           0.000001283   -0.000002995    0.000002954
     15        1          -0.000005394    0.000005003    0.000000647
     16        1          -0.000016213   -0.000001345    0.000003877
     17        1           0.000000915    0.000000663    0.000009616
 -------------------------------------------------------------------
 Cartesian Forces:  Max     0.009061983 RMS     0.001999587
 FormGI is forming the generalized inverse of G from B-inverse, IUseBI=4.

 GradGradGradGradGradGradGradGradGradGradGradGradGradGradGradGradGradGrad
 Berny optimization.
 Internal  Forces:  Max     0.004304095 RMS     0.001676412
 Search for a saddle point.
 Step number   1 out of a maximum of   95
 All quantities printed in internal units (Hartrees-Bohrs-Radians)
 Swapping is turned off.
 Second derivative matrix not updated -- analytic derivatives used.
 ITU=  0
     Eigenvalues ---   -0.03431  -0.00803   0.00092   0.00293   0.00421
     Eigenvalues ---    0.00537   0.00693   0.00891   0.01074   0.01222
     Eigenvalues ---    0.01815   0.02365   0.03713   0.04334   0.04772
     Eigenvalues ---    0.05147   0.05745   0.07039   0.07695   0.08838
     Eigenvalues ---    0.09572   0.09788   0.10587   0.10881   0.11368
     Eigenvalues ---    0.11606   0.14280   0.16561   0.17326   0.19283
     Eigenvalues ---    0.20908   0.22584   0.24402   0.24614   0.24994
     Eigenvalues ---    0.25571   0.26035   0.29265   0.30021   0.38529
     Eigenvalues ---    0.43314   0.47013   0.49433   0.50244   0.56100
 Eigenvectors required to have negative eigenvalues:
                          A1        A13       D5        D2        A27
   1                   -0.36678  -0.30356   0.26494  -0.24785   0.21840
                          A29       D6        D3        D11       D24
   1                    0.21579   0.20908  -0.20175   0.17836   0.17286
 RFO step:  Lambda0=3.603249485D-04 Lambda=-1.48672027D-02.
 Linear search not attempted -- option 19 set.
 Maximum step size (   0.300) exceeded in Quadratic search.
    -- Step size scaled by   0.492
 Iteration  1 RMS(Cart)=  0.06648385 RMS(Int)=  0.01200858
 Iteration  2 RMS(Cart)=  0.01484133 RMS(Int)=  0.00247784
 Iteration  3 RMS(Cart)=  0.00074934 RMS(Int)=  0.00239398
 Iteration  4 RMS(Cart)=  0.00000413 RMS(Int)=  0.00239398
 Iteration  5 RMS(Cart)=  0.00000003 RMS(Int)=  0.00239398
 Variable       Old X    -DE/DX   Delta X   Delta X   Delta X     New X
                                 (Linear)    (Quad)   (Total)
    R1        3.23073   0.00104   0.00000   0.01497   0.01399   3.24472
    R2        3.18320   0.00079   0.00000   0.01328   0.01175   3.19495
    R3        3.18603  -0.00175   0.00000   0.00988   0.00676   3.19279
    R4        3.27239  -0.00000   0.00000   0.02431   0.02431   3.29670
    R5        1.83197   0.00326   0.00000   0.00389   0.00251   1.83448
    R6        1.82274   0.00285   0.00000   0.00150  -0.00023   1.82251
    R7        1.82627  -0.00376   0.00000  -0.01761  -0.01725   1.80903
    R8        2.54310   0.00203   0.00000   0.02428   0.02714   2.57024
    R9        3.62577  -0.00135   0.00000   0.01837   0.02135   3.64712
   R10        2.58459  -0.00366   0.00000  -0.02086  -0.02136   2.56323
   R11        3.42657   0.00164   0.00000   0.06102   0.06072   3.48728
   R12        3.55514   0.00138   0.00000   0.04788   0.04781   3.60295
   R13        1.80540   0.00000   0.00000  -0.00037  -0.00037   1.80503
   R14        2.12477   0.00000   0.00000   0.00408   0.00408   2.12885
   R15        2.11685   0.00000   0.00000   0.00567   0.00567   2.12252
   R16        2.92571  -0.00108   0.00000  -0.01026  -0.00772   2.91798
   R17        2.12838  -0.00000   0.00000  -0.00811  -0.00811   2.12027
   R18        2.13414  -0.00000   0.00000  -0.01317  -0.01317   2.12097
    A1        2.61333  -0.00393   0.00000  -0.03086  -0.03168   2.58164
    A2        1.79055   0.00249   0.00000   0.05232   0.05130   1.84185
    A3        1.62281   0.00028   0.00000  -0.02445  -0.02649   1.59632
    A4        1.82072   0.00185   0.00000   0.01616   0.01256   1.83327
    A5        1.65372  -0.00004   0.00000  -0.02402  -0.02485   1.62888
    A6        1.77995  -0.00204   0.00000  -0.05766  -0.05635   1.72359
    A7        1.74336   0.00200   0.00000   0.00570   0.00500   1.74836
    A8        1.75505   0.00191   0.00000   0.00806   0.00728   1.76234
    A9        1.73358  -0.00305   0.00000  -0.02915  -0.02793   1.70566
   A10        2.68042   0.00430   0.00000   0.18368   0.18752   2.86794
   A11        1.87647  -0.00073   0.00000  -0.02321  -0.03051   1.84595
   A12        1.71449  -0.00151   0.00000  -0.08154  -0.08270   1.63179
   A13        2.00263  -0.00245   0.00000  -0.06376  -0.06469   1.93794
   A14        1.79947  -0.00000   0.00000  -0.00448  -0.00448   1.79499
   A15        1.96515   0.00111   0.00000   0.02362   0.02190   1.98705
   A16        1.95877   0.00034   0.00000   0.00374   0.00365   1.96242
   A17        1.97736  -0.00258   0.00000  -0.01413  -0.01101   1.96635
   A18        1.83360  -0.00032   0.00000  -0.00761  -0.00729   1.82631
   A19        1.87157   0.00078   0.00000  -0.01328  -0.01498   1.85659
   A20        1.84717   0.00083   0.00000   0.00655   0.00643   1.85360
   A21        1.96302   0.00345   0.00000   0.03054   0.04064   2.00366
   A22        1.98103  -0.00141   0.00000  -0.02210  -0.02463   1.95639
   A23        1.98175  -0.00062   0.00000  -0.02226  -0.02618   1.95557
   A24        1.85203   0.00005   0.00000   0.00768   0.00474   1.85676
   A25        1.85083  -0.00199   0.00000   0.00114  -0.00128   1.84956
   A26        1.82266   0.00029   0.00000   0.00619   0.00679   1.82945
   A27        2.23856   0.00111   0.00000   0.04064   0.04134   2.27990
   A28        2.21238  -0.00084   0.00000  -0.13526  -0.12844   2.08394
   A29        2.20757   0.00144   0.00000   0.04134   0.04277   2.25034
    D1       -0.05870  -0.00068   0.00000  -0.04814  -0.04652  -0.10522
    D2        2.59972   0.00266   0.00000   0.11999   0.12016   2.71988
    D3       -1.88607   0.00088   0.00000   0.06020   0.05944  -1.82663
    D4        0.00195   0.00060   0.00000   0.03462   0.03391   0.03586
    D5       -2.65268  -0.00281   0.00000  -0.13907  -0.13734  -2.79001
    D6        1.82122  -0.00094   0.00000  -0.07455  -0.07321   1.74800
    D7       -1.35772   0.00068   0.00000  -0.05422  -0.05996  -1.41768
    D8        1.53978   0.00047   0.00000   0.01139   0.01211   1.55189
    D9       -3.03056   0.00030   0.00000  -0.02668  -0.02757  -3.05813
   D10       -0.18775  -0.00214   0.00000  -0.01795  -0.01737  -0.20512
   D11       -2.81815   0.00187   0.00000   0.02654   0.02535  -2.79280
   D12        1.61944   0.00027   0.00000   0.02414   0.02475   1.64419
   D13        0.00006   0.00105   0.00000   0.04078   0.04081   0.04088
   D14        0.08649  -0.00060   0.00000  -0.01379  -0.01396   0.07253
   D15       -0.12800   0.00124   0.00000   0.09329   0.09409  -0.03391
   D16       -1.67753  -0.00242   0.00000  -0.13765  -0.13714  -1.81467
   D17        0.42546  -0.00081   0.00000  -0.12095  -0.11903   0.30643
   D18        2.50371  -0.00193   0.00000  -0.14563  -0.14602   2.35769
   D19        1.22211   0.00005   0.00000   0.05390   0.05903   1.28115
   D20       -1.59887  -0.00166   0.00000  -0.07145  -0.06943  -1.66830
   D21        2.61963  -0.00224   0.00000  -0.08054  -0.07794   2.54169
   D22        0.52881  -0.00172   0.00000  -0.08167  -0.08106   0.44775
   D23        2.60245   0.00196   0.00000   0.04297   0.04001   2.64247
   D24        0.53776   0.00138   0.00000   0.03388   0.03150   0.56926
   D25       -1.55306   0.00190   0.00000   0.03274   0.02838  -1.52467
   D26       -1.82762   0.00203   0.00000   0.09757   0.09588  -1.73174
   D27        0.05917  -0.00140   0.00000  -0.04489  -0.04275   0.01642
   D28        1.85273  -0.00139   0.00000  -0.07219  -0.07061   1.78212
   D29       -0.13120   0.00119   0.00000   0.02385   0.02194  -0.10926
   D30        0.93133  -0.00043   0.00000  -0.03214  -0.02993   0.90140
   D31       -1.24445  -0.00090   0.00000  -0.02925  -0.02870  -1.27315
   D32        3.10717  -0.00041   0.00000  -0.03987  -0.03776   3.06941
   D33        3.11048  -0.00017   0.00000  -0.02126  -0.02030   3.09018
   D34        0.93471  -0.00064   0.00000  -0.01837  -0.01908   0.91563
   D35       -0.99686  -0.00016   0.00000  -0.02898  -0.02814  -1.02500
   D36       -1.22214   0.00017   0.00000  -0.03263  -0.03212  -1.25426
   D37        2.88527  -0.00030   0.00000  -0.02974  -0.03089   2.85438
   D38        0.95370   0.00019   0.00000  -0.04036  -0.03995   0.91375
         Item               Value     Threshold  Converged?
 Maximum Force            0.004304     0.000450     NO 
 RMS     Force            0.001676     0.000300     NO 
 Maximum Displacement     0.255759     0.001800     NO 
 RMS     Displacement     0.080758     0.001200     NO 
 Predicted change in Energy=-6.189996D-03
 GradGradGradGradGradGradGradGradGradGradGradGradGradGradGradGradGradGrad

                          Input orientation:                          
 ---------------------------------------------------------------------
 Center     Atomic      Atomic             Coordinates (Angstroms)
 Number     Number       Type             X           Y           Z
 ---------------------------------------------------------------------
      1         14           0       -0.799467    0.112198    0.044646
      2          8           0       -0.432729   -0.026098   -1.627050
      3          8           0       -0.510045   -0.418970    1.623428
      4          8           0       -1.558273    1.611691    0.218776
      5          8           0        0.963226    1.308412    0.146298
      6          8           0        1.070764   -1.524906   -0.152613
      7          8           0       -2.219583   -0.884327   -0.138739
      8          6           0        2.183566   -0.814509    0.158571
      9          1           0        3.126881   -1.219071   -0.305733
     10          1           0        2.391692   -0.805429    1.262270
     11          6           0        2.085367    0.664662   -0.273571
     12          1           0        2.184737    0.675167   -1.391110
     13          1           0        3.020246    1.158973    0.102424
     14          1           0       -2.320510   -0.937742   -1.087071
     15          1           0        0.305906   -0.654880   -1.589108
     16          1           0       -0.769367    2.153560    0.239240
     17          1           0        0.184608   -1.070934    1.473352
 ---------------------------------------------------------------------
                    Distance matrix (angstroms):
                    1          2          3          4          5
     1  Si   0.000000
     2  O    1.717030   0.000000
     3  O    1.690697   3.275047   0.000000
     4  O    1.689552   2.712245   2.682427   0.000000
     5  O    2.132686   2.621902   2.708559   2.540707   0.000000
     6  O    2.493348   2.584740   2.622284   4.109502   2.851070
     7  O    1.744540   2.478805   2.498862   2.606770   3.875516
     8  C    3.125741   3.264205   3.091569   4.459982   2.448709
     9  H    4.160680   3.979936   4.193931   5.498999   3.357664
    10  H    3.536685   4.114958   2.949553   4.746954   2.784642
    11  C    2.954445   2.941065   3.392496   3.796759   1.360112
    12  H    3.359138   2.720031   4.188845   4.180781   2.063180
    13  H    3.960971   4.039618   4.155275   4.602318   2.062908
    14  H    2.167193   2.164807   3.300562   2.964093   4.165252
    15  H    2.116462   0.970767   3.322923   3.446876   2.701522
    16  H    2.050837   2.889165   2.932769   0.957295   1.929972
    17  H    2.099859   3.329457   0.964429   3.436288   2.833480
                    6          7          8          9         10
     6  O    0.000000
     7  O    3.352152   0.000000
     8  C    1.356402   4.413728   0.000000
     9  H    2.084370   5.359536   1.126539   0.000000
    10  H    2.065040   4.820053   1.123188   1.780517   0.000000
    11  C    2.416249   4.577133   1.544130   2.152728   2.147978
    12  H    2.759552   4.837199   2.149569   2.377775   3.045558
    13  H    3.326970   5.629303   2.144253   2.415172   2.366263
    14  H    3.566330   0.955182   4.674774   5.510327   5.267044
    15  H    1.845392   2.921355   2.570111   3.150121   3.536032
    16  H    4.131675   3.387440   4.187572   5.181929   4.449101
    17  H    1.906600   2.900655   2.406291   3.441520   2.232995
                   11         12         13         14         15
    11  C    0.000000
    12  H    1.121997   0.000000
    13  H    1.122370   1.778423   0.000000
    14  H    4.758280   4.794910   5.859589   0.000000
    15  H    2.576492   2.310462   3.676817   2.688887   0.000000
    16  H    3.260260   3.683805   3.920343   3.704226   3.519432
    17  H    3.110775   3.905704   3.859116   3.584567   3.092972
                   16         17
    16  H    0.000000
    17  H    3.581964   0.000000
 Stoichiometry    C2H8O6Si(2-)
 Framework group  C1[X(C2H8O6Si)]
 Deg. of freedom    45
 Full point group                 C1      NOp   1
 Largest Abelian subgroup         C1      NOp   1
 Largest concise Abelian subgroup C1      NOp   1
                         Standard orientation:                         
 ---------------------------------------------------------------------
 Center     Atomic      Atomic             Coordinates (Angstroms)
 Number     Number       Type             X           Y           Z
 ---------------------------------------------------------------------
      1         14           0        0.819459    0.026028   -0.043125
      2          8           0        0.417286   -0.052643    1.624286
      3          8           0        0.502229   -0.496565   -1.619424
      4          8           0        1.722879    1.442225   -0.224246
      5          8           0       -0.816936    1.386115   -0.187080
      6          8           0       -1.203716   -1.418938    0.145613
      7          8           0        2.133192   -1.100944    0.174732
      8          6           0       -2.237629   -0.608325   -0.191667
      9          1           0       -3.222317   -0.912904    0.262989
     10          1           0       -2.428175   -0.594519   -1.298488
     11          6           0       -2.002212    0.860232    0.223374
     12          1           0       -2.115965    0.895952    1.339019
     13          1           0       -2.879154    1.437629   -0.173237
     14          1           0        2.214955   -1.150639    1.125110
     15          1           0       -0.378378   -0.607246    1.582778
     16          1           0        0.990774    2.057755   -0.263730
     17          1           0       -0.254592   -1.075879   -1.471978
 ---------------------------------------------------------------------
 Rotational constants (GHZ):           2.0952735           1.2032396           1.0819873
 Standard basis: def2TZVPP (5D, 7F)
 There are   456 symmetry adapted cartesian basis functions of A   symmetry.
 There are   402 symmetry adapted basis functions of A   symmetry.
   402 basis functions,   613 primitive gaussians,   456 cartesian basis functions
    42 alpha electrons       42 beta electrons
       nuclear repulsion energy       654.2070302656 Hartrees.
 NAtoms=   17 NActive=   17 NUniq=   17 SFac= 1.00D+00 NAtFMM=   60 NAOKFM=F Big=F
 Integral buffers will be    131072 words long.
 Raffenetti 2 integral format.
 Two-electron integral symmetry is turned on.
 Nuclear repulsion after empirical dispersion term =      654.1979216332 Hartrees.
 One-electron integrals computed using PRISM.
   1 Symmetry operations used in ECPInt.
 ECPInt:  NShTT=   11325 NPrTT=   31861 LenC2=   10963 LenP2D=   24391.
 LDataN:  DoStor=T MaxTD1= 6 Len=  172
 NBasis=   402 RedAO= T EigKep=  2.94D-04  NBF=   402
 NBsUse=   402 1.00D-06 EigRej= -1.00D+00 NBFU=   402
 Initial guess from the checkpoint file:  "MaxFromSimScanTSOpt.chk"
 B after Tr=     0.000000   -0.000000    0.000000
         Rot=    0.998928    0.003698    0.002839    0.046064 Ang=   5.31 deg.
 ExpMin= 7.01D-02 ExpMax= 4.48D+04 ExpMxC= 1.53D+03 IAcc=3 IRadAn=         5 AccDes= 0.00D+00
 Harris functional with IExCor= 4639 and IRadAn=       5 diagonalized for initial guess.
 HarFok:  IExCor= 4639 AccDes= 0.00D+00 IRadAn=         5 IDoV= 1 UseB2=F ITyADJ=14
 ICtDFT=  3500011 ScaDFX=  1.000000  1.000000  1.000000  1.000000
 FoFCou: FMM=F IPFlag=           0 FMFlag=      100000 FMFlg1=           0
         NFxFlg=           0 DoJE=T BraDBF=F KetDBF=T FulRan=T
         wScrn=  0.000000 ICntrl=       500 IOpCl=  0 I1Cent=   200000004 NGrid=           0
         NMat0=    1 NMatS0=      1 NMatT0=    0 NMatD0=    1 NMtDS0=    0 NMtDT0=    0
 Petite list used in FoFCou.
 Requested convergence on RMS density matrix=1.00D-08 within 128 cycles.
 Requested convergence on MAX density matrix=1.00D-06.
 Requested convergence on             energy=1.00D-06.
 No special actions if energy rises.
 Integral accuracy reduced to 1.0D-05 until final iterations.
 Initial convergence to 1.0D-05 achieved.  Increase integral accuracy.
 SCF Done:  E(RwB97XD) =  -822.046479909     A.U. after   15 cycles
            NFock= 15  Conv=0.49D-08     -V/T= 2.0033
 DoSCS=F DFT=T ScalE2(SS,OS)=  1.000000  1.000000
 Range of M.O.s used for correlation:     1   402
 NBasis=   402 NAE=    42 NBE=    42 NFC=     0 NFV=     0
 NROrb=    402 NOA=    42 NOB=    42 NVA=   360 NVB=   360

 **** Warning!!: The largest alpha MO coefficient is  0.12674418D+02

   1 Symmetry operations used in ECPInt.
 ECPInt:  NShTT=   11325 NPrTT=   31861 LenC2=   10963 LenP2D=   24391.
 LDataN:  DoStor=T MaxTD1= 7 Len=  274
 Number of processors reduced to  13 by ecpmxn.
 Symmetrizing basis deriv contribution to polar:
 IMax=3 JMax=2 DiffMx= 0.00D+00
 G2DrvN: will do    18 centers at a time, making    1 passes.
 Calling FoFCou, ICntrl=  3107 FMM=F I1Cent=   0 AccDes= 0.00D+00.
 End of G2Drv F.D. properties file   721 does not exist.
 End of G2Drv F.D. properties file   722 does not exist.
 End of G2Drv F.D. properties file   788 does not exist.
          IDoAtm=11111111111111111
          Differentiating once with respect to electric field.
                with respect to dipole field.
          Differentiating once with respect to nuclear coordinates.
 CalDSu exits because no D1Ps are significant.
          There are    54 degrees of freedom in the 1st order CPHF.  IDoFFX=6 NUNeed=     3.
     51 vectors produced by pass  0 Test12= 2.80D-14 1.85D-09 XBig12= 3.77D+01 1.75D+00.
 AX will form    51 AO Fock derivatives at one time.
     51 vectors produced by pass  1 Test12= 2.80D-14 1.85D-09 XBig12= 3.47D+00 3.83D-01.
     51 vectors produced by pass  2 Test12= 2.80D-14 1.85D-09 XBig12= 9.39D-02 4.64D-02.
     51 vectors produced by pass  3 Test12= 2.80D-14 1.85D-09 XBig12= 1.84D-03 7.95D-03.
     51 vectors produced by pass  4 Test12= 2.80D-14 1.85D-09 XBig12= 3.28D-05 7.41D-04.
     51 vectors produced by pass  5 Test12= 2.80D-14 1.85D-09 XBig12= 3.66D-07 8.45D-05.
     51 vectors produced by pass  6 Test12= 2.80D-14 1.85D-09 XBig12= 2.75D-09 7.03D-06.
     30 vectors produced by pass  7 Test12= 2.80D-14 1.85D-09 XBig12= 1.88D-11 5.08D-07.
      4 vectors produced by pass  8 Test12= 2.80D-14 1.85D-09 XBig12= 1.22D-13 3.49D-08.
      2 vectors produced by pass  9 Test12= 2.80D-14 1.85D-09 XBig12= 8.84D-16 3.45D-09.
 InvSVY:  IOpt=1 It=  1 EMax= 1.78D-15
 Solved reduced A of dimension   393 with    54 vectors.
 Isotropic polarizability for W=    0.000000       87.80 Bohr**3.
 End of Minotr F.D. properties file   721 does not exist.
 End of Minotr F.D. properties file   722 does not exist.
 End of Minotr F.D. properties file   788 does not exist.
   1 Symmetry operations used in ECPInt.
 ECPInt:  NShTT=   11325 NPrTT=   31861 LenC2=   10963 LenP2D=   24391.
 LDataN:  DoStor=T MaxTD1= 8 Len=  415
 Calling FoFJK, ICntrl=    100127 FMM=F ISym2X=0 I1Cent= 0 IOpClX= 0 NMat=1 NMatS=1 NMatT=0.
 ***** Axes restored to original set *****
 -------------------------------------------------------------------
 Center     Atomic                   Forces (Hartrees/Bohr)
 Number     Number              X              Y              Z
 -------------------------------------------------------------------
      1       14           0.003124016    0.008086312   -0.000753034
      2        8          -0.001433216   -0.002194783   -0.003902340
      3        8           0.000867081    0.000094581    0.002049334
      4        8          -0.001664079   -0.000335183   -0.000535742
      5        8          -0.007707526   -0.014206998    0.004402920
      6        8           0.005761032   -0.006294160   -0.001054772
      7        8          -0.001049611   -0.000564020    0.000289232
      8        6          -0.001515656    0.001701156    0.001896278
      9        1           0.000111514    0.000131029   -0.000190185
     10        1           0.000811678    0.000200543   -0.000108853
     11        6           0.005117650    0.006411635   -0.002251712
     12        1          -0.000245398   -0.000592698    0.000403852
     13        1          -0.000473239    0.000988701   -0.000400491
     14        1           0.000312050   -0.000262020    0.000013113
     15        1          -0.002400976    0.000224209    0.000336778
     16        1           0.002046066    0.007591208    0.000156497
     17        1          -0.001661384   -0.000979513   -0.000350875
 -------------------------------------------------------------------
 Cartesian Forces:  Max     0.014206998 RMS     0.003480028
 FormGI is forming the generalized inverse of G from B-inverse, IUseBI=4.

 GradGradGradGradGradGradGradGradGradGradGradGradGradGradGradGradGradGrad
 Berny optimization.
 Internal  Forces:  Max     0.003301939 RMS     0.001377154
 Search for a saddle point.
 Step number   2 out of a maximum of   95
 All quantities printed in internal units (Hartrees-Bohrs-Radians)
 Swapping is turned off.
 Second derivative matrix not updated -- analytic derivatives used.
 ITU=  0  0
     Eigenvalues ---   -0.02470  -0.00271   0.00202   0.00366   0.00459
     Eigenvalues ---    0.00529   0.00669   0.00909   0.01127   0.01799
     Eigenvalues ---    0.01814   0.02919   0.03707   0.04309   0.04725
     Eigenvalues ---    0.05244   0.06285   0.07324   0.07753   0.08883
     Eigenvalues ---    0.09636   0.10023   0.10382   0.11277   0.11806
     Eigenvalues ---    0.12740   0.14915   0.15959   0.18653   0.20383
     Eigenvalues ---    0.23031   0.23946   0.24669   0.25195   0.25401
     Eigenvalues ---    0.26163   0.26634   0.29481   0.30788   0.38511
     Eigenvalues ---    0.43813   0.46608   0.49783   0.54234   0.56084
 Eigenvectors required to have negative eigenvalues:
                          A1        A13       A29       D5        A27
   1                   -0.36691  -0.30436   0.23620   0.22675   0.22432
                          D6        D2        D3        D11       D24
   1                    0.21350  -0.21319  -0.20451   0.19314   0.17944
 RFO step:  Lambda0=4.414142295D-04 Lambda=-7.66992692D-03.
 Linear search not attempted -- option 19 set.
 Maximum step size (   0.300) exceeded in Quadratic search.
    -- Step size scaled by   0.682
 Iteration  1 RMS(Cart)=  0.06306814 RMS(Int)=  0.02926074
 Iteration  2 RMS(Cart)=  0.01140467 RMS(Int)=  0.00146602
 Iteration  3 RMS(Cart)=  0.00046418 RMS(Int)=  0.00143550
 Iteration  4 RMS(Cart)=  0.00000165 RMS(Int)=  0.00143550
 Iteration  5 RMS(Cart)=  0.00000000 RMS(Int)=  0.00143550
 Variable       Old X    -DE/DX   Delta X   Delta X   Delta X     New X
                                 (Linear)    (Quad)   (Total)
    R1        3.24472   0.00267   0.00000   0.04491   0.04597   3.29069
    R2        3.19495   0.00255   0.00000   0.03349   0.03298   3.22793
    R3        3.19279   0.00087   0.00000   0.01780   0.01924   3.21203
    R4        3.29670   0.00104   0.00000   0.03125   0.03125   3.32796
    R5        1.83448   0.00173   0.00000  -0.00268  -0.00122   1.83327
    R6        1.82251   0.00182   0.00000  -0.00270  -0.00283   1.81968
    R7        1.80903  -0.00006   0.00000  -0.01107  -0.01083   1.79819
    R8        2.57024   0.00205   0.00000   0.02927   0.02777   2.59801
    R9        3.64712   0.00109   0.00000   0.14016   0.13895   3.78606
   R10        2.56323   0.00020   0.00000  -0.01007  -0.01043   2.55280
   R11        3.48728   0.00300   0.00000   0.08044   0.08081   3.56810
   R12        3.60295   0.00111   0.00000   0.13237   0.13267   3.73562
   R13        1.80503  -0.00003   0.00000  -0.00011  -0.00011   1.80493
   R14        2.12885   0.00012   0.00000   0.00461   0.00461   2.13346
   R15        2.12252   0.00005   0.00000   0.00249   0.00249   2.12501
   R16        2.91798  -0.00004   0.00000  -0.00540  -0.00620   2.91178
   R17        2.12027  -0.00043   0.00000  -0.01522  -0.01522   2.10505
   R18        2.12097  -0.00009   0.00000  -0.01224  -0.01224   2.10874
    A1        2.58164  -0.00259   0.00000   0.01140   0.00692   2.58857
    A2        1.84185   0.00312   0.00000   0.00898   0.00724   1.84909
    A3        1.59632  -0.00083   0.00000  -0.03808  -0.03759   1.55872
    A4        1.83327  -0.00008   0.00000   0.01285   0.00856   1.84184
    A5        1.62888  -0.00016   0.00000  -0.04189  -0.04156   1.58732
    A6        1.72359  -0.00085   0.00000  -0.04698  -0.04681   1.67678
    A7        1.74836  -0.00029   0.00000  -0.00866  -0.00696   1.74140
    A8        1.76234   0.00138   0.00000   0.00269   0.00354   1.76588
    A9        1.70566  -0.00057   0.00000   0.01094   0.01124   1.71690
   A10        2.86794   0.00123   0.00000  -0.01287  -0.01831   2.84962
   A11        1.84595   0.00051   0.00000  -0.02842  -0.03004   1.81592
   A12        1.63179  -0.00297   0.00000  -0.03670  -0.03903   1.59276
   A13        1.93794  -0.00177   0.00000  -0.03828  -0.03969   1.89825
   A14        1.79499  -0.00019   0.00000  -0.00799  -0.00799   1.78701
   A15        1.98705  -0.00023   0.00000   0.00737   0.00951   1.99656
   A16        1.96242   0.00041   0.00000   0.00901   0.00832   1.97074
   A17        1.96635   0.00058   0.00000   0.00263  -0.00004   1.96632
   A18        1.82631  -0.00009   0.00000  -0.00679  -0.00719   1.81912
   A19        1.85659   0.00001   0.00000  -0.01244  -0.01288   1.84371
   A20        1.85360  -0.00079   0.00000  -0.00186   0.00027   1.85386
   A21        2.00366   0.00201   0.00000   0.01308   0.01151   2.01517
   A22        1.95639  -0.00046   0.00000  -0.01087  -0.01193   1.94447
   A23        1.95557  -0.00125   0.00000  -0.03329  -0.03150   1.92407
   A24        1.85676  -0.00032   0.00000   0.01668   0.01702   1.87378
   A25        1.84956  -0.00021   0.00000   0.00506   0.00551   1.85507
   A26        1.82945   0.00013   0.00000   0.01209   0.01168   1.84113
   A27        2.27990   0.00227   0.00000   0.02566   0.02590   2.30580
   A28        2.08394  -0.00154   0.00000  -0.15044  -0.15260   1.93134
   A29        2.25034   0.00085   0.00000   0.00382   0.00558   2.25592
    D1       -0.10522  -0.00208   0.00000  -0.04711  -0.04774  -0.15296
    D2        2.71988   0.00115   0.00000   0.15019   0.15007   2.86996
    D3       -1.82663   0.00026   0.00000   0.09108   0.09098  -1.73565
    D4        0.03586   0.00145   0.00000   0.05330   0.05361   0.08947
    D5       -2.79001  -0.00207   0.00000  -0.14318  -0.14367  -2.93369
    D6        1.74800  -0.00113   0.00000  -0.08379  -0.08396   1.66405
    D7       -1.41768  -0.00249   0.00000  -0.08285  -0.08246  -1.50014
    D8        1.55189  -0.00148   0.00000   0.02438   0.02497   1.57686
    D9       -3.05813  -0.00190   0.00000  -0.03075  -0.03058  -3.08871
   D10       -0.20512  -0.00168   0.00000   0.00774   0.00787  -0.19725
   D11       -2.79280   0.00109   0.00000   0.00795   0.00703  -2.78577
   D12        1.64419   0.00128   0.00000   0.00716   0.00795   1.65214
   D13        0.04088   0.00119   0.00000  -0.01338  -0.01380   0.02707
   D14        0.07253   0.00017   0.00000   0.00172   0.00234   0.07487
   D15       -0.03391  -0.00062   0.00000   0.00960   0.00941  -0.02450
   D16       -1.81467  -0.00202   0.00000  -0.33206  -0.33183  -2.14650
   D17        0.30643  -0.00128   0.00000  -0.30840  -0.30973  -0.00331
   D18        2.35769  -0.00226   0.00000  -0.32259  -0.32310   2.03460
   D19        1.28115   0.00175   0.00000   0.30102   0.29787   1.57902
   D20       -1.66830  -0.00103   0.00000   0.00400   0.00323  -1.66506
   D21        2.54169  -0.00106   0.00000   0.00102  -0.00039   2.54130
   D22        0.44775  -0.00074   0.00000  -0.00493  -0.00674   0.44101
   D23        2.64247   0.00173   0.00000   0.06191   0.06101   2.70347
   D24        0.56926   0.00171   0.00000   0.05893   0.05738   0.62665
   D25       -1.52467   0.00202   0.00000   0.05298   0.05103  -1.47365
   D26       -1.73174   0.00330   0.00000   0.10771   0.10832  -1.62342
   D27        0.01642  -0.00046   0.00000   0.04012   0.04005   0.05647
   D28        1.78212  -0.00159   0.00000  -0.08516  -0.08486   1.69726
   D29       -0.10926  -0.00054   0.00000  -0.03125  -0.03124  -0.14051
   D30        0.90140   0.00035   0.00000   0.01423   0.01143   0.91283
   D31       -1.27315  -0.00017   0.00000   0.00669   0.00570  -1.26744
   D32        3.06941  -0.00008   0.00000  -0.01607  -0.01733   3.05208
   D33        3.09018   0.00045   0.00000   0.01633   0.01419   3.10437
   D34        0.91563  -0.00007   0.00000   0.00879   0.00846   0.92409
   D35       -1.02500   0.00002   0.00000  -0.01398  -0.01457  -1.03957
   D36       -1.25426   0.00002   0.00000   0.00261   0.00085  -1.25341
   D37        2.85438  -0.00050   0.00000  -0.00493  -0.00488   2.84950
   D38        0.91375  -0.00041   0.00000  -0.02770  -0.02791   0.88584
         Item               Value     Threshold  Converged?
 Maximum Force            0.003302     0.000450     NO 
 RMS     Force            0.001377     0.000300     NO 
 Maximum Displacement     0.216166     0.001800     NO 
 RMS     Displacement     0.067924     0.001200     NO 
 Predicted change in Energy=-5.557340D-03
 GradGradGradGradGradGradGradGradGradGradGradGradGradGradGradGradGradGrad

                          Input orientation:                          
 ---------------------------------------------------------------------
 Center     Atomic      Atomic             Coordinates (Angstroms)
 Number     Number       Type             X           Y           Z
 ---------------------------------------------------------------------
      1         14           0       -0.714153    0.188970    0.046845
      2          8           0       -0.388037    0.000376   -1.653273
      3          8           0       -0.466183   -0.362548    1.644376
      4          8           0       -1.589023    1.638553    0.196502
      5          8           0        0.882068    1.241360    0.172848
      6          8           0        1.092285   -1.600711   -0.167291
      7          8           0       -2.118594   -0.859051   -0.128076
      8          6           0        2.176657   -0.858389    0.145737
      9          1           0        3.136965   -1.211373   -0.331546
     10          1           0        2.401003   -0.853972    1.247628
     11          6           0        2.025162    0.617972   -0.268533
     12          1           0        2.109745    0.662113   -1.378382
     13          1           0        2.927814    1.146360    0.120374
     14          1           0       -2.206120   -0.927742   -1.076699
     15          1           0        0.306123   -0.676173   -1.613774
     16          1           0       -0.853276    2.240093    0.244430
     17          1           0        0.184585   -1.058040    1.502845
 ---------------------------------------------------------------------
                    Distance matrix (angstroms):
                    1          2          3          4          5
     1  Si   0.000000
     2  O    1.741356   0.000000
     3  O    1.708147   3.318480   0.000000
     4  O    1.699731   2.747300   2.713211   0.000000
     5  O    1.916069   2.547140   2.560410   2.502921   0.000000
     6  O    2.551868   2.638745   2.691469   4.220733   2.870061
     7  O    1.761079   2.461639   2.473573   2.573679   3.675085
     8  C    3.076284   3.248319   3.078373   4.518589   2.466910
     9  H    4.115246   3.954863   4.196123   5.543995   3.369700
    10  H    3.497685   4.113864   2.935926   4.820566   2.802272
    11  C    2.790583   2.849993   3.290508   3.784201   1.374806
    12  H    3.198364   2.598534   4.101512   4.136977   2.061318
    13  H    3.766420   3.931154   4.014798   4.544212   2.048623
    14  H    2.176089   2.121147   3.278883   2.930482   3.975333
    15  H    2.132391   0.970122   3.363088   3.496661   2.683405
    16  H    2.065309   2.972214   2.980508   0.951562   2.003499
    17  H    2.117239   3.377754   0.962933   3.481930   2.746382
                    6          7          8          9         10
     6  O    0.000000
     7  O    3.295655   0.000000
     8  C    1.350885   4.303970   0.000000
     9  H    2.087889   5.271284   1.128977   0.000000
    10  H    2.066968   4.724335   1.124505   1.778529   0.000000
    11  C    2.408955   4.401368   1.540848   2.141631   2.146303
    12  H    2.760858   4.664339   2.153914   2.379285   3.046190
    13  H    3.316371   5.435957   2.141004   2.409747   2.355750
    14  H    3.487031   0.955126   4.550593   5.402245   5.160767
    15  H    1.888156   2.849561   2.574487   3.153445   3.550740
    16  H    4.325100   3.368157   4.334838   5.307202   4.601084
    17  H    1.976807   2.829158   2.418667   3.479231   2.240377
                   11         12         13         14         15
    11  C    0.000000
    12  H    1.113942   0.000000
    13  H    1.115896   1.774824   0.000000
    14  H    4.576692   4.609267   5.664994   0.000000
    15  H    2.537633   2.258201   3.633478   2.581298   0.000000
    16  H    3.343622   3.728677   3.938055   3.689275   3.647154
    17  H    3.055244   3.868674   3.780993   3.519445   3.142277
                   16         17
    16  H    0.000000
    17  H    3.679462   0.000000
 Stoichiometry    C2H8O6Si(2-)
 Framework group  C1[X(C2H8O6Si)]
 Deg. of freedom    45
 Full point group                 C1      NOp   1
 Largest Abelian subgroup         C1      NOp   1
 Largest concise Abelian subgroup C1      NOp   1
                         Standard orientation:                         
 ---------------------------------------------------------------------
 Center     Atomic      Atomic             Coordinates (Angstroms)
 Number     Number       Type             X           Y           Z
 ---------------------------------------------------------------------
      1         14           0        0.765532    0.038710   -0.043332
      2          8           0        0.380504   -0.099689    1.649275
      3          8           0        0.449654   -0.446796   -1.650277
      4          8           0        1.892090    1.305764   -0.163863
      5          8           0       -0.610045    1.365097   -0.184065
      6          8           0       -1.339922   -1.393552    0.123160
      7          8           0        1.952492   -1.248809    0.143272
      8          6           0       -2.265393   -0.463899   -0.199550
      9          1           0       -3.282195   -0.639544    0.258545
     10          1           0       -2.465651   -0.410688   -1.304800
     11          6           0       -1.855124    0.957129    0.232390
     12          1           0       -1.949891    1.007868    1.341133
     13          1           0       -2.639525    1.643887   -0.165481
     14          1           0        2.009252   -1.339186    1.092417
     15          1           0       -0.424370   -0.638195    1.591606
     16          1           0        1.279058    2.031572   -0.217375
     17          1           0       -0.319211   -1.013146   -1.526448
 ---------------------------------------------------------------------
 Rotational constants (GHZ):           2.0944791           1.2302481           1.1156192
 Standard basis: def2TZVPP (5D, 7F)
 There are   456 symmetry adapted cartesian basis functions of A   symmetry.
 There are   402 symmetry adapted basis functions of A   symmetry.
   402 basis functions,   613 primitive gaussians,   456 cartesian basis functions
    42 alpha electrons       42 beta electrons
       nuclear repulsion energy       658.7438072258 Hartrees.
 NAtoms=   17 NActive=   17 NUniq=   17 SFac= 1.00D+00 NAtFMM=   60 NAOKFM=F Big=F
 Integral buffers will be    131072 words long.
 Raffenetti 2 integral format.
 Two-electron integral symmetry is turned on.
[...]
 024\0\\#N Geom=AllCheck Guess=TCheck SCRF=Check GenChk RwB97XD/def2TZV
 PP Freq\\TS Opt from GIC sim scan of EG coming off of PL1 complex\\-2,
 1\Si,-0.6540174114,0.1764803776,0.065363778\O,-0.4263479737,0.07645723
 65,-1.6991433089\O,-0.5012050342,-0.3046284853,1.7265231148\O,-1.55960
 68143,1.6300104507,0.1952072264\O,0.8924668031,1.1669902586,0.18769597
 16\O,1.0549632327,-1.5387498355,-0.1598457124\O,-2.0042718661,-0.93758
 70548,-0.1122651118\C,2.1872004086,-0.8570730623,0.1336417554\H,3.1099
 884539,-1.2611143949,-0.3728630455\H,2.4351015868,-0.8680427136,1.2284
 890141\C,2.0642105096,0.6254681792,-0.2715162217\H,2.1321668157,0.6778
 899645,-1.3812681579\H,2.9377771312,1.1871048104,0.1267444529\H,-2.096
 245153,-0.9845392415,-1.0624071689\H,0.213005233,-0.6437983402,-1.7314
 949985\H,-0.8781787257,2.3010331083,0.1964488741\H,0.0000118038,-1.118
 1032576,1.6347005384\\Version=ES64L-G16RevC.01\State=1-A\HF=-822.05332
 02\RMSD=3.017e-09\RMSF=1.661e-06\ZeroPoint=0.1213526\Thermal=0.1312127
 \ETot=-821.9221075\HTot=-821.9211633\GTot=-821.9657649\Dipole=1.004242
 ,0.4125064,-0.4296506\DipoleDeriv=2.9881481,-0.0542368,-0.0250433,0.02
 61931,2.2301227,-0.0121736,0.0100664,-0.0057273,2.1397906,-0.9707107,-
 0.0539365,-0.0304367,-0.0290328,-0.680237,0.0401232,-0.101474,-0.03347
 86,-1.1719156,-0.8736162,-0.0277115,0.0236782,-0.0380174,-0.6626743,0.
 1405087,0.143035,0.1665765,-1.2195816,-0.9199229,0.4105067,0.0434512,0
 .3709321,-1.0966615,-0.0565849,0.0281567,-0.0516657,-0.696476,-1.64725
 31,0.0591342,0.2210472,0.0813625,-0.8953411,-0.1014791,0.1849414,-0.06
 68253,-0.6661709,-1.570833,-0.0192782,-0.127818,-0.1713187,-0.988655,-
 0.0870598,-0.1680876,-0.0189115,-0.736922,-1.2658084,-0.2803997,-0.050
 2298,-0.3321095,-0.9284937,-0.0518927,0.0177532,-0.0050999,-0.5588121,
 1.3035296,-0.0553742,0.0541151,0.4017057,0.3396029,0.1448025,0.0966827
 ,0.0988165,0.6044349,-0.630905,0.19914,0.1757386,0.1597661,-0.1096008,
 -0.0390946,0.2848983,-0.1046563,-0.1364758,-0.1367206,0.0055578,-0.143
 861,-0.0214169,-0.0580635,-0.0180648,-0.2569073,0.0443783,-0.5148305,1
 .0465436,0.0890175,-0.0886704,-0.2066692,0.2637278,0.1536903,-0.166073
 7,0.1102076,0.5418278,-0.0524854,0.0046408,0.0538494,0.0276032,-0.0482
 7,0.0031492,0.1752267,0.0547925,-0.4317432,-0.4470554,-0.2132808,-0.08
 95657,-0.1880507,-0.142776,-0.0402926,-0.1735013,-0.109836,-0.0525427,
 0.3303869,0.041722,-0.043011,0.0485817,0.2550422,-0.0170699,-0.0954959
 ,-0.0383871,0.0375919,0.2845477,0.0134707,0.1209169,-0.0292197,0.19848
 19,-0.0704389,0.1437485,-0.0257823,0.310047,0.2837272,-0.1842752,-0.01
 71645,-0.1558428,0.1898711,0.0073048,-0.0079352,0.0067703,0.2429627,0.
 2784273,0.0653032,-0.0769961,0.0555334,0.1339242,0.0045721,-0.115034,-
 0.0211717,0.3088154\Polar=101.211656,-1.4464398,78.0021013,0.2323495,-
 0.1002903,80.1552183\Quadrupole=-7.1528905,3.2021799,3.9507106,2.90569
 76,2.3281122,0.6146329\PG=C01 [X(C2H8O6Si1)]\NImag=1\\0.30067336,0.005
 84799,0.35562253,0.01184779,-0.00418025,0.38232170,-0.05021196,-0.0016
 1513,0.00928114,0.29691692,0.00000961,-0.04395773,-0.00391266,-0.23627
 255,0.33646262,0.00744734,0.00174391,-0.09028432,-0.03010096,0.0136767
 0,0.17337061,-0.04325415,0.00274013,-0.00908964,0.00581943,0.00069948,
 -0.00030123,0.20481773,0.00580035,-0.04917371,0.03033709,0.00039396,0.
 00353520,0.00092902,-0.22424952,0.43857485,-0.01042771,0.01756249,-0.1
 2624351,0.00092065,0.00029935,-0.00126228,-0.00910439,0.00230225,0.203
 52019,-0.07623309,0.03853019,0.00300267,0.00004694,0.00726938,0.004124
 18,0.00069613,0.00781072,-0.00204834,0.39318800,0.06171825,-0.12661872
 ,-0.00734243,0.00830261,-0.00538695,-0.00619918,0.00938192,-0.01163936
 ,0.00535143,0.18274273,0.44633711,0.00517018,-0.00773571,-0.04426301,0
 .01144890,-0.01498046,-0.00360942,-0.00826428,0.01468205,0.00061322,-0
 .00827444,0.01238850,0.04588707,-0.04016549,0.00821411,0.00062105,-0.0
 0504455,-0.01625135,-0.02158076,-0.00656429,-0.01970362,0.01566372,-0.
 03854637,0.00883065,0.00075387,0.39920630,-0.00135259,-0.04954863,-0.0
 0491757,-0.01136554,0.00044823,-0.01310676,-0.01711828,-0.00489281,0.0
 1419557,0.01376148,0.00280829,-0.00037762,-0.07450235,0.17542455,-0.00
 013791,-0.00585664,-0.03525708,-0.01905413,-0.01589002,-0.01869726,0.0
 1777991,0.01754172,-0.00989422,0.00674863,-0.00183354,0.00643469,-0.09
 380825,0.05054105,0.13887290,0.01588634,-0.04271148,-0.00477464,-0.005
 15617,0.01566428,-0.01450526,-0.00489276,0.01049066,0.01576064,0.00052
 372,0.00349963,0.00046476,0.01737915,0.01006576,0.00012589,0.30322539,
 -0.02837502,0.00198492,0.00353556,0.01077156,-0.00155623,0.01141076,0.
 00602343,0.00281099,-0.00826717,0.00212848,0.00004508,-0.00047253,-0.0
 0481844,-0.00277879,0.00037313,0.14403596,0.17230101,-0.00265782,0.001
 28001,-0.02862778,-0.01310581,0.01235106,-0.00351034,0.01213500,-0.008
 38078,-0.00634548,0.00006583,0.00001706,0.00345197,-0.00118817,-0.0001
 9714,0.00436333,0.06496975,0.03514868,0.09241347,-0.08389852,-0.037276
 18,0.00387643,-0.01829841,-0.02044099,0.02790274,-0.00744866,-0.007538
 66,-0.01850170,0.00415308,-0.00361326,-0.00053649,-0.00101802,-0.00198
 885,-0.00078751,-0.00839202,-0.00049344,-0.00154959,0.13728735,-0.0321
 4885,-0.07357892,0.00422806,-0.01783693,0.00406060,0.01530908,-0.00525
 943,0.00498652,-0.00574059,-0.01321192,-0.02283537,-0.00345345,-0.0046
 5250,0.00158856,0.00008480,0.00272099,0.00424980,-0.00003076,0.0832234
 2,0.11172635,-0.01256456,-0.01123988,-0.04765600,0.02670607,0.01545950
 ,-0.01512641,-0.02735349,-0.01102032,-0.02589217,-0.00197108,-0.003891
 63,0.00486195,-0.00068172,-0.00012251,0.00409757,-0.00011827,-0.000282
 29,0.00425571,0.04959952,0.02758902,0.60536048,-0.01941697,0.02510217,
 0.00245256,0.00498003,-0.00689093,0.00327307,0.00313978,-0.00533671,-0
 .00655200,-0.00058260,-0.00277701,-0.00032610,-0.02773596,0.03250593,-
 0.00228956,-0.21603120,-0.07786329,-0.03535883,0.00286612,-0.00055327,
 -0.00024650,0.50169000,-0.00211246,0.01715502,0.00224401,0.00157471,-0
 .00617100,0.00303882,0.00126481,-0.00377273,-0.00310792,-0.00087553,-0
 .00114747,-0.00020844,0.01099585,-0.02780894,-0.00345026,-0.09775887,-
 0.13533175,-0.02524779,0.00276106,-0.00107928,-0.00004731,-0.00062605,
 0.43699277,-0.00505675,0.00522109,0.00544700,0.00115492,-0.00004083,0.
 00114201,-0.00145173,-0.00213865,-0.00596058,0.00081918,-0.00037738,-0
 .00064222,0.00740530,-0.01605505,0.00597235,-0.03367561,-0.02247214,-0
 .09328496,0.00134676,-0.00045049,-0.00051095,-0.00086545,0.00969842,0.
 49372432,0.00597011,-0.00831992,0.00037744,-0.00096983,0.00168742,-0.0
 0258454,-0.00143113,0.00155375,0.00319326,-0.00058431,0.00093155,0.000
 00449,0.00098653,0.00308419,-0.00142745,-0.05146688,-0.00529310,0.0028
 3177,-0.00200257,0.00020139,-0.00018832,-0.12740855,0.05952488,0.06027
 646,0.17741214,-0.00176312,-0.00365861,-0.00026518,0.00024988,0.000577
 32,0.00034071,0.00013199,0.00073970,-0.00008143,0.00096572,0.00004508,
 -0.00005633,0.00389660,-0.00756287,0.00299413,-0.01738399,0.01227104,0
 .00883295,-0.00008890,0.00039936,-0.00000432,0.04954915,-0.08006977,-0
 .03322310,-0.05866217,0.08186191,-0.00176937,0.00123897,-0.00095929,0.
 00036576,-0.00033844,0.00040419,0.00097113,-0.00027163,0.00057045,0.00
 026189,-0.00032345,0.00004147,-0.00003769,0.00062272,0.00191001,-0.000
 74683,0.00766569,0.01305815,0.00037372,0.00008330,0.00015698,0.0584500
 7,-0.03842416,-0.09177252,-0.07242153,0.03895252,0.09412710,0.00127365
 ,-0.00254122,-0.00354584,-0.00103181,0.00181253,-0.00039149,0.00068386
 ,0.00011427,0.00202444,-0.00006083,0.00020533,0.00045424,0.00093306,-0
 .00039454,0.00040105,-0.02249430,-0.01182420,-0.03622562,-0.00054425,0
 .00026251,0.00063538,-0.04842585,0.00734808,-0.01892658,0.00340573,-0.
 00017198,0.02223382,0.06399536,0.00067914,-0.00169199,-0.00039703,-0.0
 0019683,0.00124176,-0.00064710,0.00013024,0.00018040,0.00032898,0.0000
 3989,0.00013911,0.00006931,-0.00069824,0.00262648,-0.00232227,-0.01360
 451,0.00195007,-0.01994424,-0.00022055,0.00017091,0.00001879,0.0024916
 6,-0.04905533,0.00670360,0.00209348,0.00134745,-0.01458616,0.00608302,
 0.05324213,0.00316817,-0.00318450,-0.00359327,-0.00150265,0.00148173,-
 0.00030682,0.00066290,0.00073169,0.00337126,-0.00041352,0.00049405,0.0
 0056308,-0.00149464,0.00035824,0.00339491,-0.02805559,-0.01483761,-0.0
 0460238,-0.00098076,0.00015630,0.00061313,-0.01681991,0.01736196,-0.21
 463189,0.00376144,0.00087876,-0.01899545,0.03786714,-0.00606493,0.2514
 5613,-0.03895756,-0.01707502,0.00136554,0.00101948,0.00475489,0.009355
 09,0.00403341,0.00571540,-0.00418218,0.00396696,0.00052651,-0.00010449
 ,-0.22309674,0.04806773,0.05309352,-0.02083904,-0.03584389,0.00617488,
 0.00100421,0.00212424,0.00045945,-0.06531424,0.01683795,-0.00483188,-0
 .00562086,0.02582654,-0.00600764,0.00099427,0.00240459,0.00119534,0.53
 876650,0.00314446,0.01346274,0.00441354,-0.00190362,-0.00328590,-0.003
 21597,-0.00127380,-0.00486006,0.00270175,-0.00316441,0.00200132,0.0000
 2704,0.07154465,-0.10930855,-0.03475779,-0.01656573,-0.03397663,-0.002
 40194,-0.00000890,-0.00073119,-0.00017178,0.00473658,-0.14019256,0.035
 68153,0.00200235,-0.00778728,0.00629732,0.00068283,-0.00477641,-0.0007
 5450,0.03112527,0.44878603,0.01098410,0.01131190,0.00622999,0.00239724
 ,-0.00285036,-0.00858495,-0.00219223,-0.00097253,0.00125564,-0.0064444
 1,0.00096675,0.00104069,0.05393407,-0.02941255,-0.09061205,-0.00010591
 ,-0.01037126,0.00784222,0.00013368,-0.00057872,-0.00138941,-0.00618819
 ,0.03277999,-0.08693849,0.00819582,-0.01892163,0.00051246,-0.00449890,
 0.03343649,-0.01757501,0.01198349,0.01837096,0.51425875,0.00373526,0.0
 0385281,0.00443086,0.00073052,0.00038056,-0.00186233,-0.00088637,-0.00
 140991,0.00075502,-0.00087540,-0.00009941,-0.00073784,-0.01795604,0.00
 634375,0.03750175,0.00055772,0.00003423,0.00030789,0.00023735,-0.00003
 769,-0.00060349,0.00081862,0.00067679,-0.00257143,0.00009130,-0.000172
 64,-0.00036352,0.00110016,0.00109593,0.00005712,-0.04471097,-0.0054974
 5,-0.00662038,0.05807957,-0.00194010,-0.00168604,-0.00042088,-0.000183
 83,0.00002325,0.00027752,0.00021862,0.00072674,-0.00066181,0.00037447,
 -0.00007414,0.00014353,0.00952522,0.00321570,-0.01613887,0.00052472,0.
 00283367,-0.00295869,0.00003743,0.00015784,0.00001407,0.00263281,-0.00
 406892,0.03315401,-0.00013304,0.00154318,-0.00067129,0.00032138,-0.006
 02392,0.00385375,-0.00290798,-0.05115272,0.01282479,-0.00449497,0.0535
 9571,-0.00683917,-0.00571115,-0.00464296,-0.00242907,0.00019504,0.0042
 8131,0.00144309,0.00166683,-0.00080910,0.00196373,-0.00026440,0.000533
 99,0.02826289,-0.01010320,-0.01481126,0.00127496,0.00006823,0.00355092
 ,0.00013905,0.00023305,0.00082270,-0.00278577,-0.00145935,-0.01516403,
 -0.00179124,0.00117627,0.00135384,-0.00080601,0.00344620,0.00042149,-0
 .00557163,0.01962127,-0.24238263,-0.00856179,-0.01133911,0.28113500,0.
 00724817,0.00631770,-0.00041817,-0.00083723,-0.00090215,-0.00217510,-0
 .00078140,-0.00116691,0.00216404,-0.00295912,0.00126430,0.00031751,-0.
 04869257,-0.00777524,0.00089247,0.00057088,-0.00168518,0.00075470,-0.0
 0071503,-0.00065603,0.00006461,-0.00005226,0.00198701,-0.00332778,0.00
 074691,-0.00175555,0.00006593,0.00042393,-0.00026551,0.00157961,-0.147
 52836,-0.08207274,-0.05988869,0.00038431,-0.00295083,-0.00417180,0.191
 46526,0.00147358,-0.00212643,-0.00033724,-0.00024331,0.00058690,-0.000
 36566,-0.00027128,0.00045197,0.00048139,0.00018220,0.00004264,-0.00005
 783,0.01333880,0.01190578,0.00577959,-0.00102170,-0.00874525,0.0039238
 3,-0.00037801,0.00012970,0.00002906,-0.02781008,-0.00932184,-0.0168955
 4,0.00218014,0.00018286,-0.00064966,0.00031994,0.00148010,0.00143456,-
 0.07956195,-0.10823983,-0.04264890,0.00098497,0.00117714,0.00077619,0.
 08993188,0.11288973,0.00097123,-0.00075242,-0.00154180,-0.00145469,-0.
 00011700,0.00131958,-0.00005067,0.00016866,0.00002308,0.00015004,0.000
 05571,0.00012235,0.01213849,0.00797072,0.00846519,-0.00018752,0.000872
 61,0.00184060,-0.00036323,-0.00015739,0.00031324,0.00637267,0.00692008
 ,0.00130189,0.00002675,-0.00051688,-0.00013640,0.00054119,-0.00047172,
 0.00081862,-0.06141340,-0.04518767,-0.08308086,-0.02206816,-0.01797319
 ,-0.01311891,0.06431782,0.04840921,0.08388065,-0.00213661,-0.00612010,
 -0.02650570,0.00253657,0.00431735,0.00159529,-0.00455203,-0.00287206,-
 0.00592760,-0.00115400,0.00005614,0.00108375,0.00033854,0.00048434,0.0
 0177817,0.00084226,-0.00004433,0.00191220,-0.02605966,-0.01262297,-0.0
 3419257,-0.00079429,-0.00035009,-0.00024066,0.00020360,-0.00003598,-0.
 00006841,0.00033395,0.00006772,0.00041418,-0.00020181,0.00007026,-0.00
 043440,-0.00029242,-0.00002317,0.00020723,0.00018607,0.00008824,0.0001
 9325,0.03291467,-0.00697163,0.00040772,-0.02010407,0.00272551,-0.00310
 668,0.00050261,-0.00233295,0.00104509,-0.00182664,0.00004339,-0.001022
 49,0.00148345,0.00076598,-0.00005270,0.00076795,-0.00000217,-0.0012050
 0,0.00065630,-0.01212261,-0.02027971,-0.01608340,-0.00002547,0.0001004
 2,-0.00014183,0.00001669,-0.00005242,0.00000690,0.00001532,-0.00003919
 ,0.00007250,-0.00037956,0.00012953,-0.00018996,-0.00011258,-0.00002697
 ,0.00009869,0.00013962,-0.00001126,0.00011373,0.01777538,0.02296925,-0
 .00464354,-0.00140829,-0.00684996,0.00610505,0.00370093,-0.00808139,-0
 .00276130,-0.00121524,-0.00098832,0.00080818,0.00081608,0.00010860,-0.
 00033300,-0.00046768,-0.00030722,0.00034027,0.00050448,0.00003772,-0.0
 6138012,-0.03661524,-0.52813432,0.00005969,-0.00010592,-0.00015866,0.0
 0003612,0.00003548,0.00003743,0.00003023,0.00001520,0.00007989,0.00032
 346,-0.00008589,0.00001893,-0.00000563,0.00000290,0.00001852,-0.000053
 41,0.00000827,-0.00000753,0.06062581,0.03502953,0.54412320,0.00339895,
 0.00718236,0.01155036,-0.22666083,0.24359648,0.02002285,-0.00163404,0.
 00039494,-0.00010895,0.00027432,-0.00057989,-0.00107346,-0.00388893,0.
 00029490,-0.00078283,-0.00568199,0.00172400,0.00376816,0.00192189,-0.0
 0225654,-0.00181223,-0.00479741,-0.00054022,-0.00302440,0.00018623,-0.
 00007059,-0.00032543,0.00065484,0.00015050,0.00093149,0.00050875,-0.00
 160105,-0.00337258,-0.00142815,-0.00110697,0.00063612,0.00003245,0.000
 38663,0.00064542,-0.00333261,0.00099005,0.00073674,0.23955269,0.004704
 75,0.00126963,-0.00864446,0.24472352,-0.28442362,-0.02399068,0.0005126
 4,-0.00092334,0.00004052,0.00012492,0.00033375,-0.00045414,0.00038661,
 0.00059380,0.00195275,-0.00009591,-0.00911250,-0.00099543,-0.00104437,
 -0.00335425,0.00225862,0.00405047,0.00324338,-0.00097209,-0.00071447,-
 0.00005704,0.00046951,-0.00141793,-0.00095900,-0.00096169,-0.00141651,
 0.00026561,-0.00297979,-0.00122409,-0.00048475,0.00116417,0.00028107,-
 0.00025512,0.00074391,-0.00028594,0.00174935,-0.00028792,-0.24838205,0
 .29189662,0.02167200,-0.02224192,-0.00710654,0.00808140,-0.00873601,-0
 .03048753,-0.00134649,0.00102908,0.00044916,0.00148722,-0.00263990,-0.
 00422211,-0.00155858,0.00171910,-0.00064240,0.00425145,-0.00015312,0.0
 0298669,-0.00073537,0.00270901,-0.00147797,-0.00655727,-0.00324638,-0.
 00174796,0.00158341,0.00002815,-0.00034546,0.00128491,0.00078011,0.001
 32491,-0.00161289,-0.00108266,0.00048680,-0.00000140,-0.00004679,-0.00
 093015,0.00009932,0.00053727,-0.00006709,-0.00004976,-0.00043146,0.000
 15231,-0.02764440,0.03191846,0.04249234,0.01077994,0.00939693,0.000303
 33,-0.00207089,0.00041051,-0.00032625,-0.00198025,0.00078400,0.0001018
 1,-0.28225864,-0.27037005,-0.00053653,-0.00324535,-0.00080040,-0.00082
 615,-0.00051065,-0.00067857,-0.00006702,0.00075191,0.00198628,0.000362
 55,0.00085243,0.00023153,-0.00043898,0.00018549,-0.00043736,-0.0000675
 1,-0.00000211,-0.00001705,0.00013741,-0.00431769,-0.00013307,0.0018381
 1,0.00051215,-0.00018603,-0.00087606,0.00056221,0.00019430,0.00010600,
 0.00013656,-0.00001498,-0.00001375,0.00013676,0.00021413,0.00045166,0.
 28043541,-0.01735219,-0.02764269,-0.00099675,0.00089952,0.00123875,0.0
 0048497,0.00109002,0.00067815,-0.00006689,-0.23710000,-0.28275330,-0.0
 0229297,-0.00657029,0.00166912,0.00150282,0.00034585,0.00065790,0.0000
 1850,0.00039723,-0.00465190,-0.00113672,-0.00046930,-0.00026027,0.0002
 6642,-0.00018348,0.00037704,0.00007285,-0.00000541,0.00000456,-0.00011
 862,0.00126779,-0.00004842,-0.00173962,-0.00037541,0.00014719,0.000746
 01,-0.00082518,0.00001856,-0.00002236,-0.00024348,-0.00044164,0.000350
 64,-0.00003971,-0.00001247,0.00000922,0.25914429,0.31099718,-0.0009797
 8,-0.00257386,0.00604734,0.00006742,0.00100051,-0.00087913,-0.00024381
 ,0.00001718,-0.00091407,0.00111356,-0.00053645,-0.00770770,-0.00033734
 ,0.00079973,-0.00189688,-0.00008064,0.00010130,-0.00040282,0.00019999,
 -0.00171997,0.00081994,0.00000174,0.00002224,0.00013289,-0.00002134,0.
 00004069,0.00002224,-0.00005469,0.00000633,-0.00014551,0.00017777,-0.0
 0027162,-0.00078125,0.00026307,-0.00014182,-0.00014440,-0.00009505,0.0
 0005111,0.00001700,-0.00027423,0.00038930,0.00022022,0.00044167,0.0000
 9380,0.00007252,0.00027015,0.00280266,0.00562148,0.00530858,0.00847465
 ,-0.00477515,-0.00176820,0.00015546,0.00010736,-0.14576526,0.22921934,
 0.01626931,0.00040521,-0.00001999,0.00015595,-0.00288926,0.00068970,0.
 00079239,-0.00352043,0.00220180,-0.00276733,0.00015524,-0.00128272,0.0
 0190464,-0.00378764,-0.00093945,0.00340863,0.00029607,-0.00007760,-0.0
 0091438,-0.00123965,-0.00023351,-0.00050772,0.00029367,-0.00108565,0.0
 0027919,-0.00009759,0.00029228,-0.00009452,-0.00005420,0.00020566,0.00
 007479,0.00103119,-0.00050999,0.00012519,0.00075707,-0.00041684,0.0005
 9479,0.00003271,0.00001975,-0.00044849,0.15084250,0.00863781,-0.010219
 09,0.00676025,-0.00002353,-0.00028650,-0.00018874,0.22831198,-0.378467
 59,-0.02351127,0.00037829,-0.00027460,0.00129560,-0.00030167,0.0016727
 5,-0.00128857,0.00179651,-0.00639834,-0.00207163,-0.00120442,-0.000959
 03,-0.00136888,0.00128333,0.00078826,0.00204204,0.00003033,-0.00015696
 ,-0.00014498,-0.00080995,0.00016286,-0.00090171,-0.00146602,-0.0002856
 9,0.00097444,0.00005511,0.00009704,-0.00031475,0.00013373,-0.00016563,
 -0.00005602,-0.00026131,-0.00016330,-0.00027735,-0.00014285,0.00022994
 ,-0.00015216,0.00027554,0.00002221,-0.00008113,-0.23669290,0.39440366,
 -0.01618418,0.02652627,-0.00302050,0.00111876,-0.00129902,0.00031214,0
 .02916723,-0.04540643,-0.03149325,-0.00139332,0.00331878,-0.00321460,0
 .00224076,-0.00144707,-0.00139260,-0.00493746,-0.00282432,0.00297300,0
 .00126286,-0.00164602,-0.00111448,0.00737978,0.00323200,0.00309178,-0.
 00185254,-0.00021080,0.00001481,-0.00102324,-0.00037156,-0.00219309,-0
 .00040443,0.00081643,-0.00030084,0.00008027,0.00008185,-0.00011433,-0.
 00012601,-0.00047563,-0.00014962,-0.00011655,-0.00034361,-0.00026942,-
 0.00058851,0.00064443,-0.00093752,-0.00041876,0.00011984,-0.00008186,-
 0.01420465,0.01928486,0.03789036\\-0.00000023,-0.00000140,-0.00000070,
 -0.00000108,-0.00000125,-0.00000230,-0.00000012,0.00000075,0.00000047,
 -0.00000068,-0.00000021,-0.00000206,0.00000002,0.00000238,-0.00000113,
 -0.00000181,0.00000148,0.00000126,0.00000117,-0.00000076,0.00000172,-0
 .00000022,0.00000025,0.00000121,0.00000042,0.00000058,0.00000202,0.000
 00029,0.00000255,0.00000121,-0.00000046,-0.00000004,-0.00000126,-0.000
 00068,-0.00000111,-0.00000099,-0.00000060,0.00000128,-0.00000140,0.000
 00039,-0.00000236,0.00000112,0.00000412,-0.00000485,0.00000382,-0.0000
 0118,-0.00000016,-0.00000327,0.00000066,0.00000288,0.00000026\\\@
 The archive entry for this job was punched.


 I KNOW YOU BELIEVE YOU UNDERSTAND WHAT YOU THINK I SAID,
 BUT I AM NOT SURE YOU REALIZE THAT WHAT YOU HEARD IS NOT WHAT I MEANT.
 Job cpu time:       0 days  6 hours 48 minutes 14.2 seconds.
 Elapsed time:       0 days  0 hours 25 minutes 37.2 seconds.
 File lengths (MBytes):  RWF=    251 Int=      0 D2E=      0 Chk=     14 Scr=      1
 Normal termination of Gaussian 16 at Fri Jan 12 04:58:09 2024.
