 Entering Gaussian System, Link 0=/opt/software/gaussian/g16.c01/g16
 Initial command:
 /opt/software/gaussian/g16.c01/l1.exe "/scratch/arhender/25022473/Gau-27452.inp" -scrdir="/scratch/arhender/25022473/"
 Entering Link 1 = /opt/software/gaussian/g16.c01/l1.exe PID=     27453.
  
 Copyright (c) 1988-2019, Gaussian, Inc.  All Rights Reserved.
  
 This is part of the Gaussian(R) 16 program.  It is based on
 the Gaussian(R) 09 system (copyright 2009, Gaussian, Inc.),
 the Gaussian(R) 03 system (copyright 2003, Gaussian, Inc.),
 the Gaussian(R) 98 system (copyright 1998, Gaussian, Inc.),
 the Gaussian(R) 94 system (copyright 1995, Gaussian, Inc.),
 the Gaussian 92(TM) system (copyright 1992, Gaussian, Inc.),
 the Gaussian 90(TM) system (copyright 1990, Gaussian, Inc.),
 the Gaussian 88(TM) system (copyright 1988, Gaussian, Inc.),
 the Gaussian 86(TM) system (copyright 1986, Carnegie Mellon
 University), and the Gaussian 82(TM) system (copyright 1983,
 Carnegie Mellon University). Gaussian is a federally registered
 trademark of Gaussian, Inc.
  
 This software contains proprietary and confidential information,
 including trade secrets, belonging to Gaussian, Inc.
  
 This software is provided under written license and may be
 used, copied, transmitted, or stored only in accord with that
 written license.
  
 The following legend is applicable only to US Government
 contracts under FAR:
  
                    RESTRICTED RIGHTS LEGEND
  
 Use, reproduction and disclosure by the US Government is
 subject to restrictions as set forth in subparagraphs (a)
 and (c) of the Commercial Computer Software - Restricted
 Rights clause in FAR 52.227-19.
  
 Gaussian, Inc.
 340 Quinnipiac St., Bldg. 40, Wallingford CT 06492
  
  
 ---------------------------------------------------------------
 Warning -- This program may not be used in any manner that
 competes with the business of Gaussian, Inc. or will provide
 assistance to any competitor of Gaussian, Inc.  The licensee
 of this program is prohibited from giving any competitor of
 Gaussian, Inc. access to this program.  By using this program,
 the user acknowledges that Gaussian, Inc. is engaged in the
 business of creating and licensing software in the field of
 computational chemistry and represents and warrants to the
 licensee that it is not a competitor of Gaussian, Inc. and that
 it will not use this program in any manner prohibited above.
 ---------------------------------------------------------------
  

 Cite this work as:
 Gaussian 16, Revision C.01,
 M. J. Frisch, G. W. Trucks, H. B. Schlegel, G. E. Scuseria, 
 M. A. Robb, J. R. Cheeseman, G. Scalmani, V. Barone, 
 G. A. Petersson, H. Nakatsuji, X. Li, M. Caricato, A. V. Marenich, 
 J. Bloino, B. G. Janesko, R. Gomperts, B. Mennucci, H. P. Hratchian, 
 J. V. Ortiz, A. F. Izmaylov, J. L. Sonnenberg, D. Williams-Young, 
 F. Ding, F. Lipparini, F. Egidi, J. Goings, B. Peng, A. Petrone, 
 T. Henderson, D. Ranasinghe, V. G. Zakrzewski, J. Gao, N. Rega, 
 G. Zheng, W. Liang, M. Hada, M. Ehara, K. Toyota, R. Fukuda, 
 J. Hasegawa, M. Ishida, T. Nakajima, Y. Honda, O. Kitao, H. Nakai, 
 T. Vreven, K. Throssell, J. A. Montgomery, Jr., J. E. Peralta, 
 F. Ogliaro, M. J. Bearpark, J. J. Heyd, E. N. Brothers, K. N. Kudin, 
 V. N. Staroverov, T. A. Keith, R. Kobayashi, J. Normand, 
 K. Raghavachari, A. P. Rendell, J. C. Burant, S. S. Iyengar, 
 J. Tomasi, M. Cossi, J. M. Millam, M. Klene, C. Adamo, R. Cammi, 
 J. W. Ochterski, R. L. Martin, K. Morokuma, O. Farkas, 
 J. B. Foresman, and D. J. Fox, Gaussian, Inc., Wallingford CT, 2019.
 
 ******************************************
 Gaussian 16:  ES64L-G16RevC.01  3-Jul-2019
                11-Feb-2024 
 ******************************************
 %chk=PL2OHattack_DeprotonatedAttacking_DeprotoanteLG.chk
 %mem=1600MB
 %nprocs=4
 Will use up to    4 processors via shared memory.
 ------------------------------------------------------------------
 # opt=(calcall,ts,noeigen) freq wb97xd/def2tzvpp geom=connectivity
 ------------------------------------------------------------------
 1/5=1,10=4,11=1,18=20,26=3,38=1,57=2/1,3;
 2/9=110,12=2,17=6,18=5,40=1/2;
 3/5=44,7=202,11=2,25=1,30=1,71=2,74=-58,140=1/1,2,3;
 4//1;
 5/5=2,38=5/2;
 8/6=4,10=90,11=11/1;
 11/6=1,8=1,9=11,15=111,16=1/1,2,10;
 10/6=1/2;
 6/7=2,8=2,9=2,10=2,18=1,28=1/1;
 7/10=1,25=1/1,2,3,16;
 1/5=1,10=4,11=1,18=20,26=3/3(3);
 2/9=110/2;
 7/8=1,9=1,25=1,44=-1/16;
 99//99;
 2/9=110/2;
 3/5=44,7=202,11=2,25=1,30=1,71=2,74=-58,140=1/1,2,3;
 4/5=5,16=3,69=1/1;
 5/5=2,38=5/2;
 8/6=4,10=90,11=11/1;
 11/6=1,8=1,9=11,15=111,16=1/1,2,10;
 10/6=1/2;
 7/10=1,25=1/1,2,3,16;
 1/5=1,10=4,11=1,18=20,26=3/3(-8);
 2/9=110/2;
 6/7=2,8=2,9=2,10=2,18=1,19=2,28=1/1;
 7/8=1,9=1,25=1,44=-1/16;
 99//99;
 ----------------------------------------------------------------------
 PL2 OH attack modify TS with deprotonated LG and deprotonated attackin
 g OH
 ----------------------------------------------------------------------
 Symbolic Z-matrix:
 Charge = -2 Multiplicity = 1
 C                     2.14799  -1.26123   0.40032 
 H                     1.13345  -1.64984   0.48034 
 H                     2.8479   -2.09411   0.47186 
 C                     2.31861  -0.56734  -0.92102 
 H                     2.05998   0.47296  -0.98704 
 H                     2.51564  -1.12014  -1.82541 
 O                     2.43661  -0.34667   1.43002 
 O                     4.14227  -0.14957  -0.51212 
 H                     4.39838   0.67217  -0.93649 
 Si                   -0.90737   0.09953  -0.31644 
 O                    -1.04482  -0.77152   1.12495 
 H                     1.69047   0.29556   1.37203 
 O                     0.23333  -0.47593  -1.47852 
 O                    -2.11401  -0.89655  -1.05618 
 C                    -2.03042  -1.77757   1.10185 
 H                    -2.57135  -1.78762   2.05076 
 H                    -1.5525   -2.7565    0.97002 
 C                    -2.94298  -1.46332  -0.0859 
 H                    -3.42764  -2.36274  -0.47403 
 H                    -3.72797  -0.75643   0.21535 
 O                     0.42321   1.06828   0.40757 
 C                    -0.08537   2.28329   0.88967 
 H                     0.71202   3.02716   0.97367 
 H                    -0.5338    2.1442    1.88168 
 C                    -1.15061   2.69837  -0.11963 
 O                    -1.76264   1.51671  -0.55782 
 H                    -1.89628   3.3622    0.32376 
 H                    -0.69192   3.21672  -0.97035 
 
 Add virtual bond connecting atoms O21        and H12        Dist= 3.34D+00.
 Add virtual bond connecting atoms O8         and C4         Dist= 3.62D+00.

 GradGradGradGradGradGradGradGradGradGradGradGradGradGradGradGradGradGrad
 Berny optimization.
 Initialization pass.
                           ----------------------------
                           !    Initial Parameters    !
                           ! (Angstroms and Degrees)  !
 --------------------------                            --------------------------
 ! Name  Definition              Value          Derivative Info.                !
 --------------------------------------------------------------------------------
 ! R1    R(1,2)                  1.0894         calculate D2E/DX2 analytically  !
 ! R2    R(1,3)                  1.0903         calculate D2E/DX2 analytically  !
 ! R3    R(1,4)                  1.5022         calculate D2E/DX2 analytically  !
 ! R4    R(1,7)                  1.4071         calculate D2E/DX2 analytically  !
 ! R5    R(4,5)                  1.074          calculate D2E/DX2 analytically  !
 ! R6    R(4,6)                  1.0781         calculate D2E/DX2 analytically  !
 ! R7    R(4,8)                  1.9151         calculate D2E/DX2 analytically  !
 ! R8    R(7,12)                 0.9862         calculate D2E/DX2 analytically  !
 ! R9    R(8,9)                  0.9597         calculate D2E/DX2 analytically  !
 ! R10   R(10,11)                1.6897         calculate D2E/DX2 analytically  !
 ! R11   R(10,13)                1.7271         calculate D2E/DX2 analytically  !
 ! R12   R(10,14)                1.7307         calculate D2E/DX2 analytically  !
 ! R13   R(10,21)                1.7981         calculate D2E/DX2 analytically  !
 ! R14   R(10,26)                1.6728         calculate D2E/DX2 analytically  !
 ! R15   R(11,15)                1.4086         calculate D2E/DX2 analytically  !
 ! R16   R(12,21)                1.7701         calculate D2E/DX2 analytically  !
 ! R17   R(14,18)                1.3964         calculate D2E/DX2 analytically  !
 ! R18   R(15,16)                1.0923         calculate D2E/DX2 analytically  !
 ! R19   R(15,17)                1.0973         calculate D2E/DX2 analytically  !
 ! R20   R(15,18)                1.5305         calculate D2E/DX2 analytically  !
 ! R21   R(18,19)                1.0929         calculate D2E/DX2 analytically  !
 ! R22   R(18,20)                1.0985         calculate D2E/DX2 analytically  !
 ! R23   R(21,22)                1.4026         calculate D2E/DX2 analytically  !
 ! R24   R(22,23)                1.0937         calculate D2E/DX2 analytically  !
 ! R25   R(22,24)                1.0975         calculate D2E/DX2 analytically  !
 ! R26   R(22,25)                1.525          calculate D2E/DX2 analytically  !
 ! R27   R(25,26)                1.401          calculate D2E/DX2 analytically  !
 ! R28   R(25,27)                1.0924         calculate D2E/DX2 analytically  !
 ! R29   R(25,28)                1.0967         calculate D2E/DX2 analytically  !
 ! A1    A(2,1,3)              108.6945         calculate D2E/DX2 analytically  !
 ! A2    A(2,1,4)              109.5832         calculate D2E/DX2 analytically  !
 ! A3    A(2,1,7)              111.6622         calculate D2E/DX2 analytically  !
 ! A4    A(3,1,4)              109.7355         calculate D2E/DX2 analytically  !
 ! A5    A(3,1,7)              108.471          calculate D2E/DX2 analytically  !
 ! A6    A(4,1,7)              108.6726         calculate D2E/DX2 analytically  !
 ! A7    A(1,4,5)              118.304          calculate D2E/DX2 analytically  !
 ! A8    A(1,4,6)              121.452          calculate D2E/DX2 analytically  !
 ! A9    A(1,4,8)               91.2099         calculate D2E/DX2 analytically  !
 ! A10   A(5,4,6)              119.2815         calculate D2E/DX2 analytically  !
 ! A11   A(5,4,8)               91.7848         calculate D2E/DX2 analytically  !
 ! A12   A(6,4,8)               96.7157         calculate D2E/DX2 analytically  !
 ! A13   A(1,7,12)             103.0057         calculate D2E/DX2 analytically  !
 ! A14   A(4,8,9)              110.275          calculate D2E/DX2 analytically  !
 ! A15   A(11,10,13)           117.1251         calculate D2E/DX2 analytically  !
 ! A16   A(11,10,14)            90.6423         calculate D2E/DX2 analytically  !
 ! A17   A(11,10,21)            89.6818         calculate D2E/DX2 analytically  !
 ! A18   A(11,10,26)           121.2134         calculate D2E/DX2 analytically  !
 ! A19   A(13,10,14)            88.9183         calculate D2E/DX2 analytically  !
 ! A20   A(13,10,21)            87.8047         calculate D2E/DX2 analytically  !
 ! A21   A(13,10,26)           121.5265         calculate D2E/DX2 analytically  !
 ! A22   A(14,10,26)            93.9823         calculate D2E/DX2 analytically  !
 ! A23   A(21,10,26)            88.8545         calculate D2E/DX2 analytically  !
 ! A24   A(10,11,15)           114.2747         calculate D2E/DX2 analytically  !
 ! A25   A(7,12,21)            149.0925         calculate D2E/DX2 analytically  !
 ! A26   A(10,14,18)           110.5176         calculate D2E/DX2 analytically  !
 ! A27   A(11,15,16)           109.8066         calculate D2E/DX2 analytically  !
 ! A28   A(11,15,17)           109.5362         calculate D2E/DX2 analytically  !
 ! A29   A(11,15,18)           106.4568         calculate D2E/DX2 analytically  !
 ! A30   A(16,15,17)           108.1704         calculate D2E/DX2 analytically  !
 ! A31   A(16,15,18)           112.3828         calculate D2E/DX2 analytically  !
 ! A32   A(17,15,18)           110.4652         calculate D2E/DX2 analytically  !
 ! A33   A(14,18,15)           105.5825         calculate D2E/DX2 analytically  !
 ! A34   A(14,18,19)           110.5187         calculate D2E/DX2 analytically  !
 ! A35   A(14,18,20)           110.7074         calculate D2E/DX2 analytically  !
 ! A36   A(15,18,19)           111.7809         calculate D2E/DX2 analytically  !
 ! A37   A(15,18,20)           110.2064         calculate D2E/DX2 analytically  !
 ! A38   A(19,18,20)           108.0637         calculate D2E/DX2 analytically  !
 ! A39   A(10,21,12)           120.9298         calculate D2E/DX2 analytically  !
 ! A40   A(10,21,22)           109.6811         calculate D2E/DX2 analytically  !
 ! A41   A(12,21,22)           116.7737         calculate D2E/DX2 analytically  !
 ! A42   A(21,22,23)           110.5611         calculate D2E/DX2 analytically  !
 ! A43   A(21,22,24)           110.4288         calculate D2E/DX2 analytically  !
 ! A44   A(21,22,25)           105.1633         calculate D2E/DX2 analytically  !
 ! A45   A(23,22,24)           108.3402         calculate D2E/DX2 analytically  !
 ! A46   A(23,22,25)           112.022          calculate D2E/DX2 analytically  !
 ! A47   A(24,22,25)           110.3225         calculate D2E/DX2 analytically  !
 ! A48   A(22,25,26)           106.4137         calculate D2E/DX2 analytically  !
 ! A49   A(22,25,27)           111.9364         calculate D2E/DX2 analytically  !
 ! A50   A(22,25,28)           110.4794         calculate D2E/DX2 analytically  !
 ! A51   A(26,25,27)           109.9555         calculate D2E/DX2 analytically  !
 ! A52   A(26,25,28)           109.7994         calculate D2E/DX2 analytically  !
 ! A53   A(27,25,28)           108.2476         calculate D2E/DX2 analytically  !
 ! A54   A(10,26,25)           116.4914         calculate D2E/DX2 analytically  !
 ! A55   L(14,10,21,11,-1)     180.3241         calculate D2E/DX2 analytically  !
 ! A56   L(14,10,21,11,-2)     176.4837         calculate D2E/DX2 analytically  !
 ! D1    D(2,1,4,5)             87.7102         calculate D2E/DX2 analytically  !
 ! D2    D(2,1,4,6)            -80.981          calculate D2E/DX2 analytically  !
 ! D3    D(2,1,4,8)           -179.6099         calculate D2E/DX2 analytically  !
 ! D4    D(3,1,4,5)           -153.0112         calculate D2E/DX2 analytically  !
 ! D5    D(3,1,4,6)             38.2976         calculate D2E/DX2 analytically  !
 ! D6    D(3,1,4,8)            -60.3313         calculate D2E/DX2 analytically  !
 ! D7    D(7,1,4,5)            -34.5518         calculate D2E/DX2 analytically  !
 ! D8    D(7,1,4,6)            156.757          calculate D2E/DX2 analytically  !
 ! D9    D(7,1,4,8)             58.1281         calculate D2E/DX2 analytically  !
 ! D10   D(2,1,7,12)           -52.5149         calculate D2E/DX2 analytically  !
 ! D11   D(3,1,7,12)          -172.2692         calculate D2E/DX2 analytically  !
 ! D12   D(4,1,7,12)            68.4766         calculate D2E/DX2 analytically  !
 ! D13   D(1,4,8,9)           -149.4334         calculate D2E/DX2 analytically  !
 ! D14   D(5,4,8,9)            -31.0647         calculate D2E/DX2 analytically  !
 ! D15   D(6,4,8,9)             88.6966         calculate D2E/DX2 analytically  !
 ! D16   D(1,7,12,21)          -24.6341         calculate D2E/DX2 analytically  !
 ! D17   D(13,10,11,15)        -91.8147         calculate D2E/DX2 analytically  !
 ! D18   D(14,10,11,15)         -2.7011         calculate D2E/DX2 analytically  !
 ! D19   D(21,10,11,15)       -179.1847         calculate D2E/DX2 analytically  !
 ! D20   D(26,10,11,15)         92.3476         calculate D2E/DX2 analytically  !
 ! D21   D(11,10,14,18)         24.2035         calculate D2E/DX2 analytically  !
 ! D22   D(13,10,14,18)        141.322          calculate D2E/DX2 analytically  !
 ! D23   D(26,10,14,18)        -97.1485         calculate D2E/DX2 analytically  !
 ! D24   D(11,10,21,12)         42.8645         calculate D2E/DX2 analytically  !
 ! D25   D(11,10,21,22)        -97.6734         calculate D2E/DX2 analytically  !
 ! D26   D(13,10,21,12)        -74.2963         calculate D2E/DX2 analytically  !
 ! D27   D(13,10,21,22)        145.1658         calculate D2E/DX2 analytically  !
 ! D28   D(26,10,21,12)        164.0928         calculate D2E/DX2 analytically  !
 ! D29   D(26,10,21,22)         23.5549         calculate D2E/DX2 analytically  !
 ! D30   D(11,10,26,25)         87.9302         calculate D2E/DX2 analytically  !
 ! D31   D(13,10,26,25)        -87.7234         calculate D2E/DX2 analytically  !
 ! D32   D(14,10,26,25)       -178.8984         calculate D2E/DX2 analytically  !
 ! D33   D(21,10,26,25)         -1.0034         calculate D2E/DX2 analytically  !
 ! D34   D(10,11,15,16)       -138.947          calculate D2E/DX2 analytically  !
 ! D35   D(10,11,15,17)        102.4008         calculate D2E/DX2 analytically  !
 ! D36   D(10,11,15,18)        -17.0488         calculate D2E/DX2 analytically  !
 ! D37   D(7,12,21,10)          61.7868         calculate D2E/DX2 analytically  !
 ! D38   D(7,12,21,22)        -160.3034         calculate D2E/DX2 analytically  !
 ! D39   D(10,14,18,15)        -36.6899         calculate D2E/DX2 analytically  !
 ! D40   D(10,14,18,19)       -157.733          calculate D2E/DX2 analytically  !
 ! D41   D(10,14,18,20)         82.5697         calculate D2E/DX2 analytically  !
 ! D42   D(11,15,18,14)         33.5378         calculate D2E/DX2 analytically  !
 ! D43   D(11,15,18,19)        153.7562         calculate D2E/DX2 analytically  !
 ! D44   D(11,15,18,20)        -86.0532         calculate D2E/DX2 analytically  !
 ! D45   D(16,15,18,14)        153.7866         calculate D2E/DX2 analytically  !
 ! D46   D(16,15,18,19)        -85.995          calculate D2E/DX2 analytically  !
 ! D47   D(16,15,18,20)         34.1957         calculate D2E/DX2 analytically  !
 ! D48   D(17,15,18,14)        -85.3055         calculate D2E/DX2 analytically  !
 ! D49   D(17,15,18,19)         34.9129         calculate D2E/DX2 analytically  !
 ! D50   D(17,15,18,20)        155.1036         calculate D2E/DX2 analytically  !
 ! D51   D(10,21,22,23)       -158.2039         calculate D2E/DX2 analytically  !
 ! D52   D(10,21,22,24)         81.9062         calculate D2E/DX2 analytically  !
 ! D53   D(10,21,22,25)        -37.1012         calculate D2E/DX2 analytically  !
 ! D54   D(12,21,22,23)         59.433          calculate D2E/DX2 analytically  !
 ! D55   D(12,21,22,24)        -60.4569         calculate D2E/DX2 analytically  !
 ! D56   D(12,21,22,25)       -179.4643         calculate D2E/DX2 analytically  !
 ! D57   D(21,22,25,26)         35.5137         calculate D2E/DX2 analytically  !
 ! D58   D(21,22,25,27)        155.6591         calculate D2E/DX2 analytically  !
 ! D59   D(21,22,25,28)        -83.6272         calculate D2E/DX2 analytically  !
 ! D60   D(23,22,25,26)        155.6545         calculate D2E/DX2 analytically  !
 ! D61   D(23,22,25,27)        -84.2001         calculate D2E/DX2 analytically  !
 ! D62   D(23,22,25,28)         36.5137         calculate D2E/DX2 analytically  !
 ! D63   D(24,22,25,26)        -83.5648         calculate D2E/DX2 analytically  !
 ! D64   D(24,22,25,27)         36.5806         calculate D2E/DX2 analytically  !
 ! D65   D(24,22,25,28)        157.2943         calculate D2E/DX2 analytically  !
 ! D66   D(22,25,26,10)        -19.5022         calculate D2E/DX2 analytically  !
 ! D67   D(27,25,26,10)       -140.9205         calculate D2E/DX2 analytically  !
 ! D68   D(28,25,26,10)        100.0819         calculate D2E/DX2 analytically  !
 --------------------------------------------------------------------------------
 Trust Radius=3.00D-01 FncErr=1.00D-07 GrdErr=1.00D-06 EigMax=2.50D+02 EigMin=1.00D-04
 Number of steps in this run=    163 maximum allowed number of steps=    168.
 Search for a saddle point of order  1.
 GradGradGradGradGradGradGradGradGradGradGradGradGradGradGradGradGradGrad

                          Input orientation:                          
 ---------------------------------------------------------------------
 Center     Atomic      Atomic             Coordinates (Angstroms)
 Number     Number       Type             X           Y           Z
 ---------------------------------------------------------------------
      1          6           0        2.147995   -1.261226    0.400320
      2          1           0        1.133454   -1.649844    0.480336
      3          1           0        2.847897   -2.094108    0.471859
      4          6           0        2.318614   -0.567337   -0.921017
      5          1           0        2.059975    0.472958   -0.987040
      6          1           0        2.515638   -1.120142   -1.825412
      7          8           0        2.436614   -0.346666    1.430022
      8          8           0        4.142266   -0.149566   -0.512118
      9          1           0        4.398384    0.672174   -0.936487
     10         14           0       -0.907373    0.099525   -0.316440
     11          8           0       -1.044822   -0.771519    1.124948
     12          1           0        1.690469    0.295562    1.372034
     13          8           0        0.233325   -0.475930   -1.478521
     14          8           0       -2.114014   -0.896550   -1.056185
     15          6           0       -2.030415   -1.777569    1.101852
     16          1           0       -2.571353   -1.787624    2.050756
     17          1           0       -1.552495   -2.756501    0.970022
     18          6           0       -2.942981   -1.463324   -0.085900
     19          1           0       -3.427643   -2.362736   -0.474034
     20          1           0       -3.727973   -0.756426    0.215352
     21          8           0        0.423209    1.068276    0.407573
     22          6           0       -0.085371    2.283289    0.889668
     23          1           0        0.712018    3.027164    0.973667
     24          1           0       -0.533795    2.144200    1.881677
     25          6           0       -1.150606    2.698366   -0.119629
     26          8           0       -1.762643    1.516708   -0.557815
     27          1           0       -1.896279    3.362203    0.323763
     28          1           0       -0.691915    3.216715   -0.970348
 ---------------------------------------------------------------------
                    Distance matrix (angstroms):
                    1          2          3          4          5
     1  C    0.000000
     2  H    1.089367   0.000000
     3  H    1.090263   1.771089   0.000000
     4  C    1.502173   2.130778   2.133371   0.000000
     5  H    2.222591   2.741883   3.055984   1.073996   0.000000
     6  H    2.260298   2.739980   2.517233   1.078120   1.857004
     7  O    1.407127   2.073259   2.034892   2.364319   2.579889
     8  O    2.458749   3.505531   2.534728   1.915056   2.224640
     9  H    3.254126   4.249579   3.469836   2.421171   2.347424
    10  Si   3.420623   2.803590   4.419897   3.349210   3.065014
    11  O    3.310435   2.435542   4.162815   3.942127   3.955879
    12  H    1.891335   2.211333   2.803654   2.529277   2.394417
    13  O    2.795120   2.454675   3.641218   2.160462   2.116268
    14  O    4.518752   3.670749   5.328191   4.446891   4.393463
    15  C    4.268239   3.226866   4.928997   4.946788   5.114649
    16  H    5.027254   4.026263   5.652886   5.850839   5.982277
    17  H    4.031629   2.945981   4.477765   4.832593   5.225843
    18  C    5.118133   4.119798   5.851773   5.402277   5.439744
    19  H    5.750266   4.714090   6.352108   6.036781   6.198249
    20  H    5.900512   4.949938   6.715449   6.155348   6.038002
    21  O    2.898537   2.810324   3.985463   2.834244   2.231222
    22  C    4.217935   4.137949   5.285852   4.145334   3.376661
    23  H    4.558623   4.721799   5.571465   4.369372   3.490749
    24  H    4.580758   4.374728   5.602382   4.831538   4.213102
    25  C    5.179719   4.948113   6.269425   4.831410   4.001584
    26  O    4.891629   4.414996   5.946032   4.596936   3.985732
    27  H    6.143135   5.858704   7.231906   5.895429   5.071281
    28  H    5.476840   5.396281   6.543323   4.835780   3.886049
                    6          7          8          9         10
     6  H    0.000000
     7  O    3.346993   0.000000
     8  O    2.304925   2.592297   0.000000
     9  H    2.747238   3.238355   0.959657   0.000000
    10  Si   3.934665   3.798877   5.059564   5.372471   0.000000
    11  O    4.637137   3.520507   5.474732   5.996854   1.689736
    12  H    3.592879   0.986180   3.124016   3.578255   3.104538
    13  O    2.396726   3.651139   4.039835   4.354269   1.727071
    14  O    4.698445   5.214577   6.324163   6.699743   1.730714
    15  C    5.446805   4.702077   6.584625   7.175341   2.606963
    16  H    6.430217   5.247990   7.370498   7.971917   3.454530
    17  H    5.200176   4.683150   6.436082   7.127661   3.198132
    18  C    5.739355   5.699560   7.218611   7.692821   2.576693
    19  H    6.220358   6.486870   7.886894   8.406619   3.526943
    20  H    6.578730   6.296464   7.927052   8.330985   2.995203
    21  O    3.762134   2.664819   4.019994   4.214903   1.798088
    22  C    5.071514   3.683620   5.075106   5.102410   2.626635
    23  H    5.318650   3.816441   4.905688   4.773255   3.585788
    24  H    5.804953   3.902786   5.732117   5.868160   3.025223
    25  C    5.561658   4.953967   6.023227   5.963556   2.617608
    26  O    5.182998   5.005739   6.135675   6.230159   1.672769
    27  H    6.646456   5.809775   7.035286   6.960407   3.468842
    28  H    5.461489   5.314805   5.908564   5.690956   3.192318
                   11         12         13         14         15
    11  O    0.000000
    12  H    2.946444   0.000000
    13  O    2.915319   3.293043   0.000000
    14  O    2.432313   4.668133   2.421836   0.000000
    15  C    1.408568   4.268003   3.671118   2.332447   0.000000
    16  H    2.054236   4.792020   4.694950   3.264392   1.092307
    17  H    2.054723   4.471411   3.792825   2.807176   1.097312
    18  C    2.355367   5.166054   3.606003   1.396378   1.530451
    19  H    3.281242   6.055542   4.239306   2.052857   2.185883
    20  H    2.833177   5.639513   4.317379   2.059443   2.170327
    21  O    2.460607   1.770090   2.444991   3.527128   3.821142
    22  C    3.210569   2.708753   3.650093   4.244186   4.507636
    23  H    4.188003   2.928773   4.302795   5.244262   5.533790
    24  H    3.055357   2.936758   4.329490   4.513788   4.269458
    25  C    3.687854   4.008769   3.719947   3.837801   4.722295
    26  O    2.929666   4.139988   2.966849   2.489106   3.698440
    27  H    4.295874   4.834038   4.744966   4.482035   5.200065
    28  H    4.518940   4.437977   3.840565   4.353008   5.570320
                   16         17         18         19         20
    16  H    0.000000
    17  H    1.773353   0.000000
    18  C    2.192847   2.172724   0.000000
    19  H    2.727371   2.399277   1.092926   0.000000
    20  H    2.402051   3.050005   1.098485   1.773607   0.000000
    21  O    4.452372   4.341506   4.240725   5.232412   4.538590
    22  C    4.909233   5.249609   4.811941   5.883538   4.791985
    23  H    5.926452   6.211185   5.886101   6.948644   5.882526
    24  H    4.431644   5.087803   4.763378   5.851171   4.625261
    25  C    5.182007   5.577134   4.531381   5.561048   4.323265
    26  O    4.286871   4.542991   3.239829   4.222479   3.102813
    27  H    5.473477   6.162335   4.954707   5.979672   4.508876
    28  H    6.140258   6.339159   5.268046   6.233844   5.139006
                   21         22         23         24         25
    21  O    0.000000
    22  C    1.402614   0.000000
    23  H    2.059397   1.093725   0.000000
    24  H    2.060692   1.097502   1.776558   0.000000
    25  C    2.326377   1.525023   2.184668   2.166283   0.000000
    26  O    2.431258   2.344375   3.278851   2.802666   1.401040
    27  H    3.263304   2.182588   2.708845   2.401456   1.092385
    28  H    2.785311   2.167681   2.405442   3.051121   1.096725
                   26         27         28
    26  O    0.000000
    27  H    2.049607   0.000000
    28  H    2.051016   1.773805   0.000000
 Stoichiometry    C6H14O7Si(2-)
 Framework group  C1[X(C6H14O7Si)]
 Deg. of freedom    78
 Full point group                 C1      NOp   1
 Largest Abelian subgroup         C1      NOp   1
 Largest concise Abelian subgroup C1      NOp   1
                         Standard orientation:                         
 ---------------------------------------------------------------------
 Center     Atomic      Atomic             Coordinates (Angstroms)
 Number     Number       Type             X           Y           Z
 ---------------------------------------------------------------------
      1          6           0        2.178856   -1.273939    0.374511
      2          1           0        1.164564   -1.665561    0.442055
      3          1           0        2.879757   -2.106927    0.434023
      4          6           0        2.355041   -0.555165   -0.932718
      5          1           0        2.095027    0.485781   -0.980579
      6          1           0        2.557566   -1.090632   -1.846283
      7          8           0        2.460735   -0.378373    1.422611
      8          8           0        4.175902   -0.142294   -0.506760
      9          1           0        4.432817    0.687645   -0.914360
     10         14           0       -0.875070    0.095251   -0.332255
     11          8           0       -1.018402   -0.802843    1.091856
     12          1           0        1.713837    0.263669    1.372843
     13          8           0        0.272462   -0.456572   -1.499060
     14          8           0       -2.076295   -0.888670   -1.096669
     15          6           0       -2.002206   -1.809813    1.044899
     16          1           0       -2.547940   -1.838474    1.990673
     17          1           0       -1.522011   -2.785362    0.897213
     18          6           0       -2.909245   -1.474799   -0.141410
     19          1           0       -3.390446   -2.367537   -0.548781
     20          1           0       -3.696920   -0.774885    0.169006
     21          8           0        0.450220    1.052339    0.416552
     22          6           0       -0.062803    2.257321    0.918699
     23          1           0        0.732922    3.000729    1.020679
     24          1           0       -0.516030    2.098985    1.905627
     25          6           0       -1.123581    2.689570   -0.088081
     26          8           0       -1.731437    1.515376   -0.551429
     27          1           0       -1.872589    3.343830    0.363843
     28          1           0       -0.661430    3.224469   -0.926595
 ---------------------------------------------------------------------
 Rotational constants (GHZ):           0.9068225           0.4672632           0.3922715
 Standard basis: def2TZVPP (5D, 7F)
 There are   726 symmetry adapted cartesian basis functions of A   symmetry.
 There are   641 symmetry adapted basis functions of A   symmetry.
   641 basis functions,   970 primitive gaussians,   726 cartesian basis functions
    61 alpha electrons       61 beta electrons
       nuclear repulsion energy      1223.1473017646 Hartrees.
 NAtoms=   28 NActive=   28 NUniq=   28 SFac= 1.00D+00 NAtFMM=   60 NAOKFM=F Big=F
 Integral buffers will be    131072 words long.
 Raffenetti 2 integral format.
 Two-electron integral symmetry is turned on.
 Nuclear repulsion after empirical dispersion term =     1223.1286619616 Hartrees.
 One-electron integrals computed using PRISM.
   1 Symmetry operations used in ECPInt.
 ECPInt:  NShTT=   29161 NPrTT=   80163 LenC2=   26764 LenP2D=   55338.
 LDataN:  DoStor=T MaxTD1= 6 Len=  172
 NBasis=   641 RedAO= T EigKep=  1.57D-04  NBF=   641
 NBsUse=   641 1.00D-06 EigRej= -1.00D+00 NBFU=   641
 ExpMin= 7.01D-02 ExpMax= 4.48D+04 ExpMxC= 1.53D+03 IAcc=3 IRadAn=         5 AccDes= 0.00D+00
 Harris functional with IExCor= 4639 and IRadAn=       5 diagonalized for initial guess.
 HarFok:  IExCor= 4639 AccDes= 0.00D+00 IRadAn=         5 IDoV= 1 UseB2=F ITyADJ=14
 ICtDFT=  3500011 ScaDFX=  1.000000  1.000000  1.000000  1.000000
 FoFCou: FMM=F IPFlag=           0 FMFlag=      100000 FMFlg1=           0
         NFxFlg=           0 DoJE=T BraDBF=F KetDBF=T FulRan=T
         wScrn=  0.000000 ICntrl=       500 IOpCl=  0 I1Cent=   200000004 NGrid=           0
         NMat0=    1 NMatS0=      1 NMatT0=    0 NMatD0=    1 NMtDS0=    0 NMtDT0=    0
 Petite list used in FoFCou.
 Requested convergence on RMS density matrix=1.00D-08 within 128 cycles.
 Requested convergence on MAX density matrix=1.00D-06.
 Requested convergence on             energy=1.00D-06.
 No special actions if energy rises.
 Integral accuracy reduced to 1.0D-05 until final iterations.
 Initial convergence to 1.0D-05 achieved.  Increase integral accuracy.
 SCF Done:  E(RwB97XD) =  -1053.22197980     A.U. after   16 cycles
            NFock= 16  Conv=0.48D-08     -V/T= 2.0035
 DoSCS=F DFT=T ScalE2(SS,OS)=  1.000000  1.000000
 Range of M.O.s used for correlation:     1   641
 NBasis=   641 NAE=    61 NBE=    61 NFC=     0 NFV=     0
 NROrb=    641 NOA=    61 NOB=    61 NVA=   580 NVB=   580

 **** Warning!!: The largest alpha MO coefficient is  0.11175878D+02

   1 Symmetry operations used in ECPInt.
 ECPInt:  NShTT=   29161 NPrTT=   80163 LenC2=   26764 LenP2D=   55338.
 LDataN:  DoStor=T MaxTD1= 7 Len=  274
 Number of processors reduced to   2 by ecpmxn.
 Symmetrizing basis deriv contribution to polar:
 IMax=3 JMax=2 DiffMx= 0.00D+00
 G2DrvN: will do    29 centers at a time, making    1 passes.
 Calling FoFCou, ICntrl=  3107 FMM=F I1Cent=   0 AccDes= 0.00D+00.
 End of G2Drv F.D. properties file   721 does not exist.
 End of G2Drv F.D. properties file   722 does not exist.
 End of G2Drv F.D. properties file   788 does not exist.
          IDoAtm=1111111111111111111111111111
          Differentiating once with respect to electric field.
                with respect to dipole field.
          Differentiating once with respect to nuclear coordinates.
 CalDSu exits because no D1Ps are significant.
          There are    87 degrees of freedom in the 1st order CPHF.  IDoFFX=6 NUNeed=     3.
     84 vectors produced by pass  0 Test12= 4.07D-14 1.15D-09 XBig12= 7.13D+01 2.16D+00.
 AX will form    44 AO Fock derivatives at one time.
     84 vectors produced by pass  1 Test12= 4.07D-14 1.15D-09 XBig12= 7.56D+00 2.78D-01.
     84 vectors produced by pass  2 Test12= 4.07D-14 1.15D-09 XBig12= 3.91D-01 8.16D-02.
     84 vectors produced by pass  3 Test12= 4.07D-14 1.15D-09 XBig12= 5.88D-03 8.93D-03.
     84 vectors produced by pass  4 Test12= 4.07D-14 1.15D-09 XBig12= 6.60D-05 7.37D-04.
     84 vectors produced by pass  5 Test12= 4.07D-14 1.15D-09 XBig12= 5.70D-07 6.21D-05.
     84 vectors produced by pass  6 Test12= 4.07D-14 1.15D-09 XBig12= 4.06D-09 5.46D-06.
     48 vectors produced by pass  7 Test12= 4.07D-14 1.15D-09 XBig12= 2.87D-11 3.72D-07.
      4 vectors produced by pass  8 Test12= 4.07D-14 1.15D-09 XBig12= 1.98D-13 3.82D-08.
      3 vectors produced by pass  9 Test12= 4.07D-14 1.15D-09 XBig12= 2.02D-15 4.08D-09.
 InvSVY:  IOpt=1 It=  1 EMax= 5.33D-15
 Solved reduced A of dimension   643 with    87 vectors.
 Isotropic polarizability for W=    0.000000      145.57 Bohr**3.
 End of Minotr F.D. properties file   721 does not exist.
 End of Minotr F.D. properties file   722 does not exist.
 End of Minotr F.D. properties file   788 does not exist.

 **********************************************************************

            Population analysis using the SCF Density.

 **********************************************************************

 Orbital symmetries:
       Occupied  (A) (A) (A) (A) (A) (A) (A) (A) (A) (A) (A) (A)
                 (A) (A) (A) (A) (A) (A) (A) (A) (A) (A) (A) (A)
                 (A) (A) (A) (A) (A) (A) (A) (A) (A) (A) (A) (A)
                 (A) (A) (A) (A) (A) (A) (A) (A) (A) (A) (A) (A)
                 (A) (A) (A) (A) (A) (A) (A) (A) (A) (A) (A) (A)
                 (A)
       Virtual   (A) (A) (A) (A) (A) (A) (A) (A) (A) (A) (A) (A)
                 (A) (A) (A) (A) (A) (A) (A) (A) (A) (A) (A) (A)
                 (A) (A) (A) (A) (A) (A) (A) (A) (A) (A) (A) (A)
                 (A) (A) (A) (A) (A) (A) (A) (A) (A) (A) (A) (A)
                 (A) (A) (A) (A) (A) (A) (A) (A) (A) (A) (A) (A)
                 (A) (A) (A) (A) (A) (A) (A) (A) (A) (A) (A) (A)
                 (A) (A) (A) (A) (A) (A) (A) (A) (A) (A) (A) (A)
                 (A) (A) (A) (A) (A) (A) (A) (A) (A) (A) (A) (A)
                 (A) (A) (A) (A) (A) (A) (A) (A) (A) (A) (A) (A)
                 (A) (A) (A) (A) (A) (A) (A) (A) (A) (A) (A) (A)
                 (A) (A) (A) (A) (A) (A) (A) (A) (A) (A) (A) (A)
                 (A) (A) (A) (A) (A) (A) (A) (A) (A) (A) (A) (A)
                 (A) (A) (A) (A) (A) (A) (A) (A) (A) (A) (A) (A)
                 (A) (A) (A) (A) (A) (A) (A) (A) (A) (A) (A) (A)
                 (A) (A) (A) (A) (A) (A) (A) (A) (A) (A) (A) (A)
                 (A) (A) (A) (A) (A) (A) (A) (A) (A) (A) (A) (A)
                 (A) (A) (A) (A) (A) (A) (A) (A) (A) (A) (A) (A)
                 (A) (A) (A) (A) (A) (A) (A) (A) (A) (A) (A) (A)
                 (A) (A) (A) (A) (A) (A) (A) (A) (A) (A) (A) (A)
                 (A) (A) (A) (A) (A) (A) (A) (A) (A) (A) (A) (A)
                 (A) (A) (A) (A) (A) (A) (A) (A) (A) (A) (A) (A)
                 (A) (A) (A) (A) (A) (A) (A) (A) (A) (A) (A) (A)
                 (A) (A) (A) (A) (A) (A) (A) (A) (A) (A) (A) (A)
                 (A) (A) (A) (A) (A) (A) (A) (A) (A) (A) (A) (A)
                 (A) (A) (A) (A) (A) (A) (A) (A) (A) (A) (A) (A)
                 (A) (A) (A) (A) (A) (A) (A) (A) (A) (A) (A) (A)
                 (A) (A) (A) (A) (A) (A) (A) (A) (A) (A) (A) (A)
                 (A) (A) (A) (A) (A) (A) (A) (A) (A) (A) (A) (A)
                 (A) (A) (A) (A) (A) (A) (A) (A) (A) (A) (A) (A)
                 (A) (A) (A) (A) (A) (A) (A) (A) (A) (A) (A) (A)
                 (A) (A) (A) (A) (A) (A) (A) (A) (A) (A) (A) (A)
                 (A) (A) (A) (A) (A) (A) (A) (A) (A) (A) (A) (A)
                 (A) (A) (A) (A) (A) (A) (A) (A) (A) (A) (A) (A)
                 (A) (A) (A) (A) (A) (A) (A) (A) (A) (A) (A) (A)
                 (A) (A) (A) (A) (A) (A) (A) (A) (A) (A) (A) (A)
                 (A) (A) (A) (A) (A) (A) (A) (A) (A) (A) (A) (A)
                 (A) (A) (A) (A) (A) (A) (A) (A) (A) (A) (A) (A)
                 (A) (A) (A) (A) (A) (A) (A) (A) (A) (A) (A) (A)
                 (A) (A) (A) (A) (A) (A) (A) (A) (A) (A) (A) (A)
                 (A) (A) (A) (A) (A) (A) (A) (A) (A) (A) (A) (A)
                 (A) (A) (A) (A) (A) (A) (A) (A) (A) (A) (A) (A)
                 (A) (A) (A) (A) (A) (A) (A) (A) (A) (A) (A) (A)
                 (A) (A) (A) (A) (A) (A) (A) (A) (A) (A) (A) (A)
                 (A) (A) (A) (A) (A) (A) (A) (A) (A) (A) (A) (A)
                 (A) (A) (A) (A) (A) (A) (A) (A) (A) (A) (A) (A)
                 (A) (A) (A) (A) (A) (A) (A) (A) (A) (A) (A) (A)
                 (A) (A) (A) (A) (A) (A) (A) (A) (A) (A) (A) (A)
                 (A) (A) (A) (A) (A) (A) (A) (A) (A) (A) (A) (A)
                 (A) (A) (A) (A)
 The electronic state is 1-A.
 Alpha  occ. eigenvalues --  -65.96603 -18.95292 -18.94683 -18.92643 -18.92203
 Alpha  occ. eigenvalues --  -18.91425 -18.87218 -18.79731 -10.07380 -10.06877
 Alpha  occ. eigenvalues --  -10.06267 -10.06149 -10.03015 -10.02398  -5.07837
 Alpha  occ. eigenvalues --   -3.42495  -3.42349  -3.42200  -0.85763  -0.83455
 Alpha  occ. eigenvalues --   -0.81108  -0.78517  -0.77192  -0.69684  -0.60177
 Alpha  occ. eigenvalues --   -0.55870  -0.54731  -0.51986  -0.44058  -0.42999
 Alpha  occ. eigenvalues --   -0.40000  -0.33230  -0.32271  -0.31371  -0.30846
 Alpha  occ. eigenvalues --   -0.29752  -0.27850  -0.26110  -0.25377  -0.22978
 Alpha  occ. eigenvalues --   -0.22659  -0.22584  -0.21969  -0.20616  -0.17326
 Alpha  occ. eigenvalues --   -0.15878  -0.13835  -0.13102  -0.12007  -0.11256
 Alpha  occ. eigenvalues --   -0.10269  -0.09492  -0.09135  -0.06417  -0.05967
 Alpha  occ. eigenvalues --   -0.05290  -0.05136  -0.01734  -0.01379   0.03083
 Alpha  occ. eigenvalues --    0.05679
 Alpha virt. eigenvalues --    0.33987   0.35063   0.37291   0.37794   0.38096
 Alpha virt. eigenvalues --    0.38767   0.39039   0.39241   0.41137   0.42641
 Alpha virt. eigenvalues --    0.43411   0.43754   0.43934   0.44836   0.46520
 Alpha virt. eigenvalues --    0.47654   0.47827   0.49264   0.49706   0.50600
 Alpha virt. eigenvalues --    0.51465   0.52147   0.53277   0.54111   0.54948
 Alpha virt. eigenvalues --    0.56077   0.57634   0.59760   0.59841   0.60244
 Alpha virt. eigenvalues --    0.62517   0.63012   0.63457   0.64636   0.65781
 Alpha virt. eigenvalues --    0.66574   0.66685   0.67396   0.68145   0.69527
 Alpha virt. eigenvalues --    0.69861   0.70366   0.71588   0.71799   0.72109
 Alpha virt. eigenvalues --    0.72671   0.72934   0.74027   0.74516   0.75057
 Alpha virt. eigenvalues --    0.75320   0.75534   0.75893   0.76236   0.76993
 Alpha virt. eigenvalues --    0.77568   0.78159   0.79232   0.79828   0.80636
 Alpha virt. eigenvalues --    0.81126   0.83039   0.83761   0.84737   0.85262
 Alpha virt. eigenvalues --    0.85979   0.86876   0.87405   0.88168   0.88836
 Alpha virt. eigenvalues --    0.89981   0.90707   0.91741   0.93206   0.93348
 Alpha virt. eigenvalues --    0.94315   0.95405   0.96452   0.98637   0.99442
 Alpha virt. eigenvalues --    0.99933   1.01486   1.02729   1.03584   1.04345
 Alpha virt. eigenvalues --    1.05694   1.06494   1.08566   1.09063   1.10148
 Alpha virt. eigenvalues --    1.10678   1.10957   1.12818   1.13065   1.13866
 Alpha virt. eigenvalues --    1.14871   1.15749   1.16392   1.16917   1.17890
 Alpha virt. eigenvalues --    1.18443   1.18898   1.19962   1.21034   1.21480
 Alpha virt. eigenvalues --    1.21778   1.23255   1.24524   1.25564   1.26449
 Alpha virt. eigenvalues --    1.27832   1.29017   1.29974   1.30758   1.31894
 Alpha virt. eigenvalues --    1.33105   1.33317   1.34554   1.35455   1.35930
 Alpha virt. eigenvalues --    1.37239   1.37983   1.39317   1.40038   1.40369
 Alpha virt. eigenvalues --    1.40600   1.41055   1.42003   1.42265   1.43254
 Alpha virt. eigenvalues --    1.43873   1.44977   1.46184   1.47715   1.48684
 Alpha virt. eigenvalues --    1.49161   1.50136   1.51218   1.51862   1.52668
 Alpha virt. eigenvalues --    1.53588   1.55306   1.56041   1.56255   1.57022
 Alpha virt. eigenvalues --    1.58217   1.59045   1.60296   1.61258   1.62864
 Alpha virt. eigenvalues --    1.63678   1.64328   1.65915   1.66317   1.66810
 Alpha virt. eigenvalues --    1.67395   1.68180   1.68798   1.70187   1.71222
 Alpha virt. eigenvalues --    1.72181   1.73096   1.74554   1.76029   1.76298
 Alpha virt. eigenvalues --    1.77275   1.77843   1.79359   1.79715   1.80569
 Alpha virt. eigenvalues --    1.82626   1.83332   1.84707   1.85118   1.86716
 Alpha virt. eigenvalues --    1.86869   1.88902   1.89665   1.91300   1.92235
 Alpha virt. eigenvalues --    1.92970   1.93286   1.95600   1.96507   1.97803
 Alpha virt. eigenvalues --    1.98495   1.99323   2.00724   2.03012   2.05245
 Alpha virt. eigenvalues --    2.05661   2.07949   2.09090   2.12760   2.14376
 Alpha virt. eigenvalues --    2.16561   2.17522   2.18621   2.19631   2.22320
 Alpha virt. eigenvalues --    2.23555   2.24997   2.27183   2.27787   2.28155
 Alpha virt. eigenvalues --    2.31052   2.32029   2.32824   2.33114   2.35243
 Alpha virt. eigenvalues --    2.37541   2.39569   2.40839   2.41557   2.41855
 Alpha virt. eigenvalues --    2.42659   2.44445   2.46144   2.47436   2.48437
 Alpha virt. eigenvalues --    2.49557   2.50311   2.51674   2.52565   2.54195
 Alpha virt. eigenvalues --    2.56586   2.58462   2.59894   2.60615   2.61831
 Alpha virt. eigenvalues --    2.64782   2.65844   2.67487   2.68629   2.70132
 Alpha virt. eigenvalues --    2.71353   2.72847   2.75410   2.76307   2.77647
 Alpha virt. eigenvalues --    2.79666   2.80205   2.82057   2.83023   2.86466
 Alpha virt. eigenvalues --    2.89774   2.89882   2.93379   2.94123   2.95487
 Alpha virt. eigenvalues --    2.95941   2.97168   2.98529   2.99159   3.01000
 Alpha virt. eigenvalues --    3.01296   3.03123   3.06139   3.07650   3.08245
 Alpha virt. eigenvalues --    3.10843   3.11544   3.11769   3.13773   3.14547
 Alpha virt. eigenvalues --    3.15390   3.15980   3.17299   3.18066   3.19614
 Alpha virt. eigenvalues --    3.20478   3.21651   3.22169   3.23872   3.24693
 Alpha virt. eigenvalues --    3.26329   3.27373   3.27516   3.29034   3.30574
 Alpha virt. eigenvalues --    3.31935   3.32802   3.33660   3.34619   3.35169
 Alpha virt. eigenvalues --    3.37023   3.37944   3.38819   3.39680   3.41257
 Alpha virt. eigenvalues --    3.41745   3.42824   3.43919   3.44556   3.45604
 Alpha virt. eigenvalues --    3.46634   3.47600   3.48662   3.49278   3.49833
 Alpha virt. eigenvalues --    3.51246   3.52323   3.52758   3.53484   3.54475
 Alpha virt. eigenvalues --    3.55676   3.56873   3.57595   3.57719   3.59715
 Alpha virt. eigenvalues --    3.60340   3.61288   3.62114   3.64531   3.66144
 Alpha virt. eigenvalues --    3.66804   3.67985   3.68587   3.69189   3.70610
 Alpha virt. eigenvalues --    3.72715   3.73039   3.73832   3.75486   3.77075
 Alpha virt. eigenvalues --    3.77721   3.78866   3.79756   3.81529   3.82097
 Alpha virt. eigenvalues --    3.83532   3.84679   3.87680   3.88319   3.90374
 Alpha virt. eigenvalues --    3.90615   3.92195   3.93564   3.95897   3.97033
 Alpha virt. eigenvalues --    3.97579   3.98415   3.99170   3.99578   4.00222
 Alpha virt. eigenvalues --    4.00632   4.00822   4.02348   4.02914   4.04758
 Alpha virt. eigenvalues --    4.04826   4.07616   4.08087   4.08216   4.09275
 Alpha virt. eigenvalues --    4.10730   4.11469   4.12321   4.13506   4.14480
 Alpha virt. eigenvalues --    4.15255   4.16168   4.17240   4.19549   4.20041
 Alpha virt. eigenvalues --    4.21421   4.24168   4.26014   4.26947   4.27368
 Alpha virt. eigenvalues --    4.28518   4.30037   4.30808   4.31580   4.33787
 Alpha virt. eigenvalues --    4.34237   4.34819   4.36577   4.37722   4.39773
 Alpha virt. eigenvalues --    4.40661   4.42531   4.43652   4.45041   4.46454
 Alpha virt. eigenvalues --    4.47005   4.47298   4.47443   4.48969   4.49965
 Alpha virt. eigenvalues --    4.51067   4.52434   4.53369   4.53939   4.55932
 Alpha virt. eigenvalues --    4.57431   4.58027   4.59054   4.60215   4.60817
 Alpha virt. eigenvalues --    4.62096   4.63046   4.65689   4.66325   4.69588
 Alpha virt. eigenvalues --    4.69915   4.70618   4.72431   4.73345   4.73992
 Alpha virt. eigenvalues --    4.75557   4.81749   4.83541   4.84520   4.86701
 Alpha virt. eigenvalues --    4.87142   4.87987   4.91169   4.93239   4.94017
 Alpha virt. eigenvalues --    4.94695   4.99246   5.00070   5.01687   5.03203
 Alpha virt. eigenvalues --    5.05415   5.06761   5.08796   5.10493   5.11301
 Alpha virt. eigenvalues --    5.12565   5.14067   5.14463   5.15502   5.16138
 Alpha virt. eigenvalues --    5.18033   5.19545   5.20211   5.21894   5.22302
 Alpha virt. eigenvalues --    5.24702   5.25823   5.26555   5.29222   5.30368
 Alpha virt. eigenvalues --    5.30545   5.31367   5.34130   5.36957   5.38898
 Alpha virt. eigenvalues --    5.39522   5.40842   5.43550   5.43980   5.44903
 Alpha virt. eigenvalues --    5.48115   5.49221   5.51468   5.52618   5.54307
 Alpha virt. eigenvalues --    5.56217   5.60527   5.61069   5.63221   5.65077
 Alpha virt. eigenvalues --    5.66222   5.66940   5.67909   5.69880   5.70594
 Alpha virt. eigenvalues --    5.71839   5.73233   5.73694   5.76381   5.77445
 Alpha virt. eigenvalues --    5.78890   5.79137   5.80815   5.81401   5.81871
 Alpha virt. eigenvalues --    5.82920   5.83453   5.83976   5.86499   5.88244
 Alpha virt. eigenvalues --    5.89014   5.89352   5.91604   5.92260   5.93806
 Alpha virt. eigenvalues --    5.96346   5.96484   5.98531   5.99119   6.00281
 Alpha virt. eigenvalues --    6.01117   6.02673   6.03545   6.06048   6.07970
 Alpha virt. eigenvalues --    6.09233   6.10706   6.12582   6.14026   6.17709
 Alpha virt. eigenvalues --    6.18343   6.29608   6.30029   6.31088   6.36912
 Alpha virt. eigenvalues --    6.37317   6.39663   6.42912   6.44146   6.46064
 Alpha virt. eigenvalues --    6.49319   6.51494   6.52339   6.53353   6.58728
 Alpha virt. eigenvalues --    6.62918   6.74040   6.84699   6.90250   6.97865
 Alpha virt. eigenvalues --    6.99796   7.00833   7.02587   7.04184   7.04931
 Alpha virt. eigenvalues --    7.06342   7.08571   7.09851   7.11143   7.11639
 Alpha virt. eigenvalues --    7.13122   7.14918   7.15600   7.16324   7.19367
 Alpha virt. eigenvalues --    7.21013   7.25159   7.25936   7.31418   7.32967
 Alpha virt. eigenvalues --    7.33164   7.37454   7.38733   7.39943   7.42306
 Alpha virt. eigenvalues --    7.47874   7.52861   7.54581   7.55619   7.60066
 Alpha virt. eigenvalues --    7.67456   7.68704   7.74912   7.76299   7.81157
 Alpha virt. eigenvalues --    7.85802   7.86329   7.91709   7.96407   8.03528
 Alpha virt. eigenvalues --    8.06229  12.85558  23.61553  23.63980  23.74112
 Alpha virt. eigenvalues --   23.76396  23.79738  23.88974  44.10798  44.29103
 Alpha virt. eigenvalues --   44.52797  44.55471  44.56885  44.69613  44.80457
          Condensed to atoms (all electrons):
               1          2          3          4          5          6
     1  C    4.836883   0.419724   0.315437   0.132546  -0.028269  -0.015959
     2  H    0.419724   0.675372  -0.050159  -0.049066   0.001418   0.008672
     3  H    0.315437  -0.050159   0.763085  -0.012331   0.003369  -0.004867
     4  C    0.132546  -0.049066  -0.012331   5.049948   0.441495   0.355679
     5  H   -0.028269   0.001418   0.003369   0.441495   0.531562  -0.011268
     6  H   -0.015959   0.008672  -0.004867   0.355679  -0.011268   0.636793
     7  O    0.329118  -0.055956  -0.026201  -0.085699  -0.004575   0.007939
     8  O   -0.025679   0.003346  -0.002547   0.121121  -0.018343  -0.027304
     9  H   -0.000303  -0.001020   0.000322  -0.026745   0.004171   0.003898
    10  Si   0.007188  -0.018535   0.000096  -0.038548  -0.009076   0.002392
    11  O   -0.016026   0.024360   0.000451  -0.002806   0.001058   0.000040
    12  H   -0.078201  -0.007832   0.009699   0.016330   0.002620  -0.000511
    13  O   -0.028262  -0.009076   0.003617   0.076315  -0.040841  -0.013345
    14  O    0.000531  -0.002564  -0.000033   0.000546  -0.000113  -0.000238
    15  C    0.002615  -0.002293  -0.000061  -0.001617   0.000027  -0.000223
    16  H   -0.000384   0.000652  -0.000004  -0.000074  -0.000006  -0.000003
    17  H    0.005186  -0.007612  -0.000260  -0.000134   0.000004   0.000094
    18  C   -0.000848   0.002532   0.000013  -0.000530  -0.000075  -0.000038
    19  H    0.000082  -0.000061  -0.000001  -0.000002  -0.000002  -0.000000
    20  H    0.000069  -0.000369  -0.000003  -0.000011  -0.000000   0.000001
    21  O   -0.000030  -0.000509  -0.000423  -0.025833   0.026042   0.002080
    22  C   -0.000137   0.001543   0.000137  -0.000465   0.000288   0.000038
    23  H   -0.000498  -0.000009  -0.000006   0.002016  -0.001208   0.000021
    24  H    0.000724  -0.000118  -0.000015  -0.000917   0.001533   0.000037
    25  C   -0.001903  -0.000451   0.000013   0.002620  -0.001827   0.000004
    26  O   -0.000705  -0.000155  -0.000004   0.000940  -0.000310   0.000052
    27  H   -0.000021  -0.000015   0.000000   0.000011   0.000034   0.000000
    28  H    0.000222   0.000020  -0.000002  -0.000656   0.001132   0.000028
               7          8          9         10         11         12
     1  C    0.329118  -0.025679  -0.000303   0.007188  -0.016026  -0.078201
     2  H   -0.055956   0.003346  -0.001020  -0.018535   0.024360  -0.007832
     3  H   -0.026201  -0.002547   0.000322   0.000096   0.000451   0.009699
     4  C   -0.085699   0.121121  -0.026745  -0.038548  -0.002806   0.016330
     5  H   -0.004575  -0.018343   0.004171  -0.009076   0.001058   0.002620
     6  H    0.007939  -0.027304   0.003898   0.002392   0.000040  -0.000511
     7  O    7.999701  -0.041806   0.003702   0.004292   0.000875   0.353953
     8  O   -0.041806   8.340350   0.264164  -0.000220  -0.000008   0.007769
     9  H    0.003702   0.264164   0.678354  -0.000494   0.000003   0.000388
    10  Si   0.004292  -0.000220  -0.000494  11.864748   0.277963  -0.010115
    11  O    0.000875  -0.000008   0.000003   0.277963   8.054291   0.003369
    12  H    0.353953   0.007769   0.000388  -0.010115   0.003369   0.442713
    13  O    0.003415   0.005355  -0.001086   0.600749  -0.031239  -0.001643
    14  O    0.000002   0.000001  -0.000001   0.374888  -0.032077   0.000003
    15  C    0.000080  -0.000004   0.000001  -0.104204   0.365635   0.000410
    16  H    0.000004   0.000000  -0.000000  -0.013242  -0.042678  -0.000085
    17  H   -0.000148   0.000002  -0.000000   0.035544  -0.062250  -0.000043
    18  C    0.000014  -0.000002  -0.000000  -0.104983  -0.077827  -0.000072
    19  H   -0.000000   0.000000  -0.000000  -0.004526   0.005233  -0.000006
    20  H    0.000000   0.000000  -0.000000   0.015172   0.006571  -0.000011
    21  O   -0.036768  -0.000085   0.000144   0.235246  -0.038198   0.051302
    22  C    0.001374  -0.000410  -0.000014  -0.083341  -0.000046  -0.001178
    23  H    0.000726  -0.000005   0.000100   0.004357  -0.000324  -0.000792
    24  H    0.000697   0.000012   0.000000  -0.003926   0.007651  -0.003994
    25  C   -0.000336   0.000069  -0.000007  -0.079092  -0.003504   0.002630
    26  O   -0.000011   0.000000   0.000001   0.360307  -0.022431  -0.000154
    27  H    0.000012   0.000000   0.000000  -0.011528   0.000240  -0.000060
    28  H    0.000024  -0.000008   0.000002   0.013885  -0.000213  -0.000451
              13         14         15         16         17         18
     1  C   -0.028262   0.000531   0.002615  -0.000384   0.005186  -0.000848
     2  H   -0.009076  -0.002564  -0.002293   0.000652  -0.007612   0.002532
     3  H    0.003617  -0.000033  -0.000061  -0.000004  -0.000260   0.000013
     4  C    0.076315   0.000546  -0.001617  -0.000074  -0.000134  -0.000530
     5  H   -0.040841  -0.000113   0.000027  -0.000006   0.000004  -0.000075
     6  H   -0.013345  -0.000238  -0.000223  -0.000003   0.000094  -0.000038
     7  O    0.003415   0.000002   0.000080   0.000004  -0.000148   0.000014
     8  O    0.005355   0.000001  -0.000004   0.000000   0.000002  -0.000002
     9  H   -0.001086  -0.000001   0.000001  -0.000000  -0.000000  -0.000000
    10  Si   0.600749   0.374888  -0.104204  -0.013242   0.035544  -0.104983
    11  O   -0.031239  -0.032077   0.365635  -0.042678  -0.062250  -0.077827
    12  H   -0.001643   0.000003   0.000410  -0.000085  -0.000043  -0.000072
    13  O    8.385876  -0.072454  -0.003761  -0.000337   0.000614   0.000635
    14  O   -0.072454   8.070580  -0.094782   0.008774   0.008518   0.362729
    15  C   -0.003761  -0.094782   4.867833   0.325533   0.373783   0.285268
    16  H   -0.000337   0.008774   0.325533   0.832061  -0.096211   0.001090
    17  H    0.000614   0.008518   0.373783  -0.096211   0.809487  -0.068543
    18  C    0.000635   0.362729   0.285268   0.001090  -0.068543   4.840005
    19  H   -0.000337  -0.049070  -0.021201   0.015253  -0.023207   0.350350
    20  H   -0.001478  -0.066210  -0.086428  -0.017529   0.023225   0.342940
    21  O   -0.065516   0.001192   0.005727  -0.000088  -0.000735  -0.001024
    22  C    0.001853  -0.000524   0.004012  -0.000367  -0.000252  -0.002522
    23  H   -0.001533  -0.000009   0.000103  -0.000023   0.000004  -0.000055
    24  H   -0.001331  -0.000207  -0.001139  -0.000243   0.000152   0.000209
    25  C   -0.010680   0.001672  -0.002686   0.000336   0.000106  -0.002251
    26  O   -0.027654  -0.042943  -0.006188   0.000197  -0.000134  -0.007752
    27  H   -0.000472   0.000093   0.000165  -0.000033   0.000009  -0.000018
    28  H    0.001502  -0.000643  -0.000176   0.000007  -0.000003   0.000128
              19         20         21         22         23         24
     1  C    0.000082   0.000069  -0.000030  -0.000137  -0.000498   0.000724
     2  H   -0.000061  -0.000369  -0.000509   0.001543  -0.000009  -0.000118
     3  H   -0.000001  -0.000003  -0.000423   0.000137  -0.000006  -0.000015
     4  C   -0.000002  -0.000011  -0.025833  -0.000465   0.002016  -0.000917
     5  H   -0.000002  -0.000000   0.026042   0.000288  -0.001208   0.001533
     6  H   -0.000000   0.000001   0.002080   0.000038   0.000021   0.000037
     7  O   -0.000000   0.000000  -0.036768   0.001374   0.000726   0.000697
     8  O    0.000000   0.000000  -0.000085  -0.000410  -0.000005   0.000012
     9  H   -0.000000  -0.000000   0.000144  -0.000014   0.000100   0.000000
    10  Si  -0.004526   0.015172   0.235246  -0.083341   0.004357  -0.003926
    11  O    0.005233   0.006571  -0.038198  -0.000046  -0.000324   0.007651
    12  H   -0.000006  -0.000011   0.051302  -0.001178  -0.000792  -0.003994
    13  O   -0.000337  -0.001478  -0.065516   0.001853  -0.001533  -0.001331
    14  O   -0.049070  -0.066210   0.001192  -0.000524  -0.000009  -0.000207
    15  C   -0.021201  -0.086428   0.005727   0.004012   0.000103  -0.001139
    16  H    0.015253  -0.017529  -0.000088  -0.000367  -0.000023  -0.000243
    17  H   -0.023207   0.023225  -0.000735  -0.000252   0.000004   0.000152
    18  C    0.350350   0.342940  -0.001024  -0.002522  -0.000055   0.000209
    19  H    0.847407  -0.104666   0.000052  -0.000065  -0.000001  -0.000004
    20  H   -0.104666   0.903821  -0.000331  -0.000760   0.000002   0.000299
    21  O    0.000052  -0.000331   8.208287   0.331086  -0.044717  -0.056976
    22  C   -0.000065  -0.000760   0.331086   4.835486   0.361491   0.359651
    23  H   -0.000001   0.000002  -0.044717   0.361491   0.793906  -0.085504
    24  H   -0.000004   0.000299  -0.056976   0.359651  -0.085504   0.821897
    25  C    0.000035   0.001427  -0.060874   0.309357  -0.026360  -0.050415
    26  O   -0.000643   0.008303  -0.033639  -0.086689   0.005810   0.007668
    27  H   -0.000014  -0.000119   0.006431  -0.013125   0.010839  -0.014205
    28  H    0.000001   0.000122   0.008265  -0.069598  -0.019638   0.019442
              25         26         27         28
     1  C   -0.001903  -0.000705  -0.000021   0.000222
     2  H   -0.000451  -0.000155  -0.000015   0.000020
     3  H    0.000013  -0.000004   0.000000  -0.000002
     4  C    0.002620   0.000940   0.000011  -0.000656
     5  H   -0.001827  -0.000310   0.000034   0.001132
     6  H    0.000004   0.000052   0.000000   0.000028
     7  O   -0.000336  -0.000011   0.000012   0.000024
     8  O    0.000069   0.000000   0.000000  -0.000008
     9  H   -0.000007   0.000001   0.000000   0.000002
    10  Si  -0.079092   0.360307  -0.011528   0.013885
    11  O   -0.003504  -0.022431   0.000240  -0.000213
    12  H    0.002630  -0.000154  -0.000060  -0.000451
    13  O   -0.010680  -0.027654  -0.000472   0.001502
    14  O    0.001672  -0.042943   0.000093  -0.000643
    15  C   -0.002686  -0.006188   0.000165  -0.000176
    16  H    0.000336   0.000197  -0.000033   0.000007
    17  H    0.000106  -0.000134   0.000009  -0.000003
    18  C   -0.002251  -0.007752  -0.000018   0.000128
    19  H    0.000035  -0.000643  -0.000014   0.000001
    20  H    0.001427   0.008303  -0.000119   0.000122
    21  O   -0.060874  -0.033639   0.006431   0.008265
    22  C    0.309357  -0.086689  -0.013125  -0.069598
    23  H   -0.026360   0.005810   0.010839  -0.019638
    24  H   -0.050415   0.007668  -0.014205   0.019442
    25  C    4.723041   0.365328   0.355850   0.393271
    26  O    0.365328   7.993444  -0.049801  -0.056276
    27  H    0.355850  -0.049801   0.822633  -0.096839
    28  H    0.393271  -0.056276  -0.096839   0.800886
 Mulliken charges:
               1
     1  C    0.146898
     2  H    0.068162
     3  H    0.000680
     4  C    0.045866
     5  H    0.101158
     6  H    0.055989
     7  O   -0.454428
     8  O   -0.625769
     9  H    0.074422
    10  Si   0.685000
    11  O   -0.418115
    12  H    0.213963
    13  O   -0.768887
    14  O   -0.467662
    15  C    0.093570
    16  H   -0.012599
    17  H    0.002805
    18  C    0.080631
    19  H   -0.014609
    20  H   -0.024040
    21  O   -0.510110
    22  C    0.053178
    23  H    0.001306
    24  H   -0.000978
    25  C    0.084629
    26  O   -0.406557
    27  H   -0.010068
    28  H    0.005565
 Sum of Mulliken charges =  -2.00000
 Mulliken charges with hydrogens summed into heavy atoms:
               1
     1  C    0.215740
     4  C    0.203013
     7  O   -0.240465
     8  O   -0.551347
    10  Si   0.685000
    11  O   -0.418115
    13  O   -0.768887
    14  O   -0.467662
    15  C    0.083776
    18  C    0.041982
    21  O   -0.510110
    22  C    0.053505
    25  C    0.080126
    26  O   -0.406557
 APT charges:
               1
     1  C    0.406711
     2  H   -0.019184
     3  H   -0.099538
     4  C    1.153069
     5  H   -0.026466
     6  H   -0.076810
     7  O   -0.705724
     8  O   -1.048847
     9  H    0.051222
    10  Si   2.310640
    11  O   -0.972048
    12  H    0.385748
    13  O   -1.423977
    14  O   -0.986796
    15  C    0.536609
    16  H   -0.145745
    17  H   -0.119961
    18  C    0.533401
    19  H   -0.151961
    20  H   -0.172418
    21  O   -0.943068
    22  C    0.519933
    23  H   -0.122819
    24  H   -0.146224
    25  C    0.521348
    26  O   -0.987518
    27  H   -0.145996
    28  H   -0.123581
 Sum of APT charges =  -2.00000
 APT charges with hydrogens summed into heavy atoms:
               1
     1  C    0.287989
     4  C    1.049793
     7  O   -0.319976
     8  O   -0.997626
    10  Si   2.310640
    11  O   -0.972048
    13  O   -1.423977
    14  O   -0.986796
    15  C    0.270902
    18  C    0.209022
    21  O   -0.943068
    22  C    0.250890
    25  C    0.251771
    26  O   -0.987518
 Electronic spatial extent (au):  <R**2>=           3186.3725
 Charge=             -2.0000 electrons
 Dipole moment (field-independent basis, Debye):
    X=             -7.0482    Y=              2.4744    Z=              3.6650  Tot=              8.3206
 Quadrupole moment (field-independent basis, Debye-Ang):
   XX=           -164.4352   YY=           -103.5884   ZZ=           -116.8668
   XY=              5.9947   XZ=             -8.0304   YZ=             -1.8751
 Traceless Quadrupole moment (field-independent basis, Debye-Ang):
   XX=            -36.1384   YY=             24.7084   ZZ=             11.4300
   XY=              5.9947   XZ=             -8.0304   YZ=             -1.8751
 Octapole moment (field-independent basis, Debye-Ang**2):
  XXX=           -176.2041  YYY=             -6.5291  ZZZ=              7.7382  XYY=             19.4343
  XXY=             31.0770  XXZ=              3.9055  XZZ=             -0.4612  YZZ=             12.5749
  YYZ=             -0.7316  XYZ=             -2.4542
 Hexadecapole moment (field-independent basis, Debye-Ang**3):
 XXXX=          -3566.6703 YYYY=          -1287.5181 ZZZZ=           -627.7754 XXXY=            108.9671
 XXXZ=             -1.5886 YYYX=              7.3620 YYYZ=             -5.4930 ZZZX=             -9.9745
 ZZZY=             -5.1155 XXYY=           -642.8164 XXZZ=           -570.9682 YYZZ=           -317.4003
 XXYZ=            -10.5613 YYXZ=             -2.5125 ZZXY=              2.0855
 N-N= 1.223128661962D+03 E-N=-4.971337970254D+03  KE= 1.049546386800D+03
  Exact polarizability:     178.421       4.971     141.060      -2.163      -0.414     117.243
 Approx polarizability:     165.956       4.612     143.877       2.412       1.093     132.866
   1 Symmetry operations used in ECPInt.
 ECPInt:  NShTT=   29161 NPrTT=   80163 LenC2=   26764 LenP2D=   55338.
 LDataN:  DoStor=T MaxTD1= 8 Len=  415
 Calling FoFJK, ICntrl=    100127 FMM=F ISym2X=0 I1Cent= 0 IOpClX= 0 NMat=1 NMatS=1 NMatT=0.
 ***** Axes restored to original set *****
 -------------------------------------------------------------------
 Center     Atomic                   Forces (Hartrees/Bohr)
 Number     Number              X              Y              Z
 -------------------------------------------------------------------
      1        6           0.003160627    0.010575751   -0.003378172
      2        1          -0.000513924   -0.000607033   -0.000820225
      3        1           0.004868214   -0.000459150    0.000612085
      4        6           0.023092486    0.021471604    0.004295424
      5        1           0.000529852   -0.006343766   -0.000062529
      6        1          -0.004609670   -0.000136418    0.000851112
      7        8          -0.018392499   -0.001207732    0.019353699
      8        8           0.002731127   -0.013056129   -0.013894731
      9        1          -0.008561825   -0.001516290   -0.002349562
     10       14           0.095024889   -0.046644444   -0.085814473
     11        8          -0.021678931   -0.008789783    0.020254634
     12        1           0.009690811   -0.009229182   -0.003667119
     13        8          -0.030533262    0.011689374    0.028723052
     14        8          -0.039163101   -0.010605491    0.014386255
     15        6           0.010743648    0.010643921   -0.002422403
     16        1          -0.003151616   -0.001019487    0.004529288
     17        1           0.000680423   -0.001822475   -0.001020051
     18        6           0.012477216    0.008073911   -0.012721831
     19        1          -0.003172950   -0.004707520   -0.000578697
     20        1          -0.006174277    0.001834025    0.004599732
     21        8          -0.014997341    0.035297326    0.024584247
     22        6           0.009559630   -0.016729165   -0.006764178
     23        1           0.002031667    0.003687440    0.000920254
     24        1          -0.003542961    0.002499875    0.005061696
     25        6          -0.002413314   -0.012143443   -0.002349124
     26        8          -0.016182363    0.024127230    0.007339919
     27        1          -0.003388922    0.004098344    0.001868129
     28        1           0.001886366    0.001018707   -0.001536430
 -------------------------------------------------------------------
 Cartesian Forces:  Max     0.095024889 RMS     0.018982025
 FormGI is forming the generalized inverse of G from B-inverse, IUseBI=4.

 GradGradGradGradGradGradGradGradGradGradGradGradGradGradGradGradGradGrad
 Berny optimization.
 Internal  Forces:  Max     0.043388625 RMS     0.009031049
 Search for a saddle point.
 Step number   1 out of a maximum of  163
 All quantities printed in internal units (Hartrees-Bohrs-Radians)
 Swapping is turned off.
 Second derivative matrix not updated -- analytic derivatives used.
 ITU=  0
     Eigenvalues ---   -0.09507  -0.00228   0.00161   0.00206   0.00258
     Eigenvalues ---    0.00371   0.00453   0.00696   0.00745   0.01836
     Eigenvalues ---    0.02142   0.02844   0.03584   0.03709   0.04042
     Eigenvalues ---    0.04389   0.04404   0.04739   0.04808   0.04832
     Eigenvalues ---    0.04949   0.05168   0.05577   0.05860   0.06159
     Eigenvalues ---    0.06521   0.07132   0.07225   0.07687   0.08097
     Eigenvalues ---    0.08670   0.08796   0.09211   0.09379   0.09696
     Eigenvalues ---    0.09848   0.09955   0.10189   0.10573   0.11192
     Eigenvalues ---    0.12039   0.12840   0.13043   0.15711   0.18102
     Eigenvalues ---    0.18738   0.20668   0.21692   0.24065   0.24808
     Eigenvalues ---    0.25163   0.26109   0.26710   0.26941   0.28000
     Eigenvalues ---    0.28468   0.29517   0.30239   0.30640   0.30738
     Eigenvalues ---    0.31980   0.32039   0.32097   0.32132   0.32564
     Eigenvalues ---    0.33923   0.34629   0.34643   0.36779   0.37951
     Eigenvalues ---    0.38238   0.38596   0.38896   0.40299   0.45868
     Eigenvalues ---    0.53258   0.90455   1.58194
 Eigenvectors required to have negative eigenvalues:
                          R7        D7        D1        D4        A25
   1                    0.67930   0.28508   0.25361   0.25172  -0.23596
                          D5        D2        A11       D8        A9
   1                   -0.17733  -0.17545  -0.14917  -0.14397  -0.14126
 RFO step:  Lambda0=9.151573162D-03 Lambda=-5.62624369D-02.
 Linear search not attempted -- option 19 set.
 Maximum step size (   0.300) exceeded in Quadratic search.
    -- Step size scaled by   0.603
 Iteration  1 RMS(Cart)=  0.06838374 RMS(Int)=  0.01011262
 Iteration  2 RMS(Cart)=  0.00833754 RMS(Int)=  0.00060639
 Iteration  3 RMS(Cart)=  0.00032929 RMS(Int)=  0.00050471
 Iteration  4 RMS(Cart)=  0.00000036 RMS(Int)=  0.00050471
 Variable       Old X    -DE/DX   Delta X   Delta X   Delta X     New X
                                 (Linear)    (Quad)   (Total)
    R1        2.05860   0.00063   0.00000  -0.00053  -0.00053   2.05807
    R2        2.06030   0.00352   0.00000   0.00214   0.00214   2.06244
    R3        2.83870   0.01151   0.00000   0.00658   0.00658   2.84527
    R4        2.65909   0.00010   0.00000   0.01210   0.01210   2.67118
    R5        2.02956  -0.00627   0.00000  -0.00630  -0.00630   2.02326
    R6        2.03735  -0.00149   0.00000  -0.00870  -0.00870   2.02865
    R7        3.61893  -0.01220   0.00000   0.11986   0.11986   3.73879
    R8        1.86361  -0.00366   0.00000  -0.00950  -0.00950   1.85411
    R9        1.81349  -0.00254   0.00000  -0.00345  -0.00345   1.81004
   R10        3.19314   0.01899   0.00000   0.03757   0.03774   3.23088
   R11        3.26369  -0.04339   0.00000  -0.13164  -0.13164   3.13205
   R12        3.27058   0.02323   0.00000   0.04930   0.04950   3.32007
   R13        3.39789   0.02485   0.00000   0.04106   0.04151   3.43940
   R14        3.16108   0.02284   0.00000   0.04854   0.04875   3.20983
   R15        2.66181  -0.00932   0.00000  -0.02056  -0.02067   2.64114
   R16        3.34499   0.00932   0.00000   0.06704   0.06704   3.41203
   R17        2.63877  -0.01084   0.00000  -0.02548  -0.02558   2.61319
   R18        2.06416   0.00551   0.00000   0.00953   0.00953   2.07369
   R19        2.07362   0.00204   0.00000   0.00498   0.00498   2.07860
   R20        2.89213   0.00268   0.00000   0.00544   0.00522   2.89735
   R21        2.06533   0.00549   0.00000   0.01001   0.01001   2.07534
   R22        2.07584   0.00685   0.00000   0.01185   0.01185   2.08769
   R23        2.65056  -0.01251   0.00000  -0.02909  -0.02911   2.62144
   R24        2.06684   0.00406   0.00000   0.00794   0.00794   2.07478
   R25        2.07398   0.00570   0.00000   0.01006   0.01006   2.08404
   R26        2.88188   0.00256   0.00000   0.00600   0.00555   2.88743
   R27        2.64758  -0.00704   0.00000  -0.01349  -0.01380   2.63378
   R28        2.06431   0.00556   0.00000   0.00929   0.00929   2.07360
   R29        2.07251   0.00246   0.00000   0.00594   0.00594   2.07845
    A1        1.89708   0.00318   0.00000   0.00213   0.00207   1.89914
    A2        1.91259  -0.00413   0.00000  -0.01109  -0.01085   1.90174
    A3        1.94887  -0.01443   0.00000  -0.03457  -0.03440   1.91447
    A4        1.91525  -0.00739   0.00000  -0.00253  -0.00287   1.91238
    A5        1.89318   0.00058   0.00000   0.00561   0.00524   1.89842
    A6        1.89669   0.02208   0.00000   0.04070   0.04062   1.93732
    A7        2.06479   0.00030   0.00000   0.00345   0.00183   2.06663
    A8        2.11974  -0.00275   0.00000   0.01009   0.00800   2.12774
    A9        1.59191   0.02867   0.00000   0.00219   0.00233   1.59425
   A10        2.08185   0.00087   0.00000   0.00716   0.00447   2.08633
   A11        1.60195  -0.00098   0.00000  -0.02158  -0.02156   1.58038
   A12        1.68801  -0.01940   0.00000  -0.08519  -0.08497   1.60303
   A13        1.79779  -0.01448   0.00000  -0.01663  -0.01663   1.78116
   A14        1.92466  -0.01567   0.00000  -0.04797  -0.04797   1.87669
   A15        2.04422   0.00717   0.00000   0.02150   0.02155   2.06576
   A16        1.58201  -0.00965   0.00000  -0.01949  -0.02004   1.56196
   A17        1.56524  -0.00148   0.00000  -0.00993  -0.01109   1.55415
   A18        2.11557  -0.01391   0.00000  -0.06091  -0.06128   2.05429
   A19        1.55192   0.01296   0.00000   0.05062   0.05055   1.60247
   A20        1.53248   0.01619   0.00000   0.04275   0.04265   1.57513
   A21        2.12104   0.00707   0.00000   0.04011   0.04039   2.16142
   A22        1.64030  -0.00701   0.00000  -0.03723  -0.03965   1.60065
   A23        1.55080  -0.00966   0.00000  -0.02153  -0.02205   1.52876
   A24        1.99447   0.00285   0.00000   0.00728   0.00744   2.00191
   A25        2.60216   0.00330   0.00000  -0.03683  -0.03683   2.56532
   A26        1.92890   0.00422   0.00000   0.00930   0.00946   1.93835
   A27        1.91649  -0.00076   0.00000   0.00197   0.00211   1.91860
   A28        1.91177  -0.00010   0.00000   0.00668   0.00669   1.91845
   A29        1.85802   0.00268   0.00000   0.00257   0.00231   1.86033
   A30        1.88793   0.00038   0.00000  -0.00170  -0.00175   1.88618
   A31        1.96145  -0.00369   0.00000  -0.00994  -0.00991   1.95154
   A32        1.92798   0.00153   0.00000   0.00091   0.00097   1.92895
   A33        1.84276   0.00187   0.00000   0.00661   0.00636   1.84912
   A34        1.92892  -0.00106   0.00000   0.00280   0.00294   1.93186
   A35        1.93221   0.00308   0.00000   0.01070   0.01076   1.94296
   A36        1.95094   0.00070   0.00000  -0.00322  -0.00326   1.94768
   A37        1.92346  -0.00444   0.00000  -0.01266  -0.01259   1.91087
   A38        1.88607  -0.00010   0.00000  -0.00389  -0.00401   1.88206
   A39        2.11062  -0.00041   0.00000  -0.03079  -0.03178   2.07884
   A40        1.91430   0.00377   0.00000   0.01440   0.01468   1.92897
   A41        2.03808  -0.00191   0.00000   0.03926   0.03935   2.07743
   A42        1.92966  -0.00154   0.00000   0.00429   0.00454   1.93419
   A43        1.92735   0.00263   0.00000   0.01058   0.01050   1.93784
   A44        1.83545   0.00262   0.00000   0.00282   0.00259   1.83804
   A45        1.89089  -0.00008   0.00000  -0.00391  -0.00403   1.88687
   A46        1.95515  -0.00029   0.00000  -0.00569  -0.00590   1.94925
   A47        1.92549  -0.00326   0.00000  -0.00762  -0.00735   1.91814
   A48        1.85727   0.00287   0.00000   0.00483   0.00472   1.86199
   A49        1.95366  -0.00263   0.00000  -0.00432  -0.00415   1.94950
   A50        1.92823   0.00059   0.00000  -0.00366  -0.00381   1.92442
   A51        1.91909  -0.00143   0.00000   0.00117   0.00136   1.92044
   A52        1.91636   0.00030   0.00000   0.00477   0.00466   1.92102
   A53        1.88928   0.00032   0.00000  -0.00249  -0.00252   1.88676
   A54        2.03316   0.00120   0.00000   0.00239   0.00283   2.03599
   A55        3.14725  -0.01113   0.00000  -0.02942  -0.03113   3.11612
   A56        3.08022   0.02688   0.00000   0.08929   0.08853   3.16875
    D1        1.53083  -0.00205   0.00000   0.10457   0.10460   1.63543
    D2       -1.41339   0.00701   0.00000  -0.01644  -0.01658  -1.42996
    D3       -3.13478   0.01234   0.00000   0.08138   0.08142  -3.05337
    D4       -2.67055  -0.00518   0.00000   0.09886   0.09886  -2.57169
    D5        0.66842   0.00387   0.00000  -0.02215  -0.02232   0.64610
    D6       -1.05298   0.00920   0.00000   0.07568   0.07567  -0.97731
    D7       -0.60304   0.00430   0.00000   0.12826   0.12840  -0.47465
    D8        2.73593   0.01335   0.00000   0.00725   0.00722   2.74315
    D9        1.01453   0.01868   0.00000   0.10507   0.10521   1.11974
   D10       -0.91656   0.00313   0.00000  -0.01440  -0.01419  -0.93075
   D11       -3.00667   0.00765   0.00000   0.00048   0.00061  -3.00606
   D12        1.19514   0.00355   0.00000  -0.02300  -0.02334   1.17181
   D13       -2.60810  -0.00071   0.00000   0.24869   0.24917  -2.35893
   D14       -0.54218   0.00089   0.00000   0.25136   0.25030  -0.29188
   D15        1.54805  -0.00038   0.00000   0.24650   0.24708   1.79513
   D16       -0.42995   0.02427   0.00000  -0.02712  -0.02712  -0.45707
   D17       -1.60247  -0.00022   0.00000  -0.01290  -0.01300  -1.61547
   D18       -0.04714   0.00942   0.00000   0.03406   0.03369  -0.01345
   D19       -3.12736  -0.01745   0.00000  -0.05523  -0.05484   3.10098
   D20        1.61177  -0.00556   0.00000  -0.02536  -0.02534   1.58643
   D21        0.42243  -0.00747   0.00000  -0.02766  -0.02718   0.39525
   D22        2.46653  -0.00011   0.00000  -0.00571  -0.00555   2.46098
   D23       -1.69556   0.00774   0.00000   0.03728   0.03656  -1.65900
   D24        0.74813   0.01008   0.00000   0.09619   0.09584   0.84397
   D25       -1.70472   0.00875   0.00000   0.04781   0.04819  -1.65653
   D26       -1.29672   0.00326   0.00000   0.07532   0.07492  -1.22179
   D27        2.53362   0.00192   0.00000   0.02694   0.02727   2.56089
   D28        2.86396  -0.00361   0.00000   0.03592   0.03563   2.89959
   D29        0.41111  -0.00495   0.00000  -0.01246  -0.01202   0.39909
   D30        1.53467  -0.00004   0.00000  -0.00440  -0.00452   1.53015
   D31       -1.53106  -0.00557   0.00000  -0.01637  -0.01648  -1.54754
   D32       -3.12237  -0.01708   0.00000  -0.05631  -0.05417   3.10665
   D33       -0.01751   0.00711   0.00000   0.01836   0.01778   0.00027
   D34       -2.42508  -0.00318   0.00000  -0.01625  -0.01627  -2.44135
   D35        1.78723  -0.00314   0.00000  -0.01940  -0.01948   1.76775
   D36       -0.29756  -0.00645   0.00000  -0.02556  -0.02563  -0.32319
   D37        1.07838   0.00809   0.00000  -0.00104  -0.00080   1.07758
   D38       -2.79782   0.01164   0.00000   0.03880   0.03855  -2.75927
   D39       -0.64036   0.00424   0.00000   0.01507   0.01494  -0.62542
   D40       -2.75296   0.00286   0.00000   0.01340   0.01335  -2.73960
   D41        1.44111   0.00167   0.00000   0.00953   0.00942   1.45053
   D42        0.58534   0.00254   0.00000   0.00895   0.00884   0.59418
   D43        2.68355   0.00281   0.00000   0.01468   0.01456   2.69812
   D44       -1.50191   0.00013   0.00000  -0.00092  -0.00092  -1.50283
   D45        2.68408   0.00119   0.00000   0.00725   0.00716   2.69125
   D46       -1.50090   0.00146   0.00000   0.01298   0.01289  -1.48801
   D47        0.59683  -0.00121   0.00000  -0.00261  -0.00259   0.59423
[...]
 006835,0.00051594,0.00016497,-0.00008682,-0.00000284,-0.00167287,-0.00
 144253,-0.00056452,0.00065115,0.00027215,-0.00057283,-0.00009015,-0.00
 005596,0.00006375,0.01511528,0.00076935,0.00792689,-0.00651629,-0.0020
 9672,0.00099659,0.00107460,0.00422311,0.00072201,0.00138055,-0.0022567
 7,-0.00313217,-0.00111887,0.00000394,0.00016862,-0.00033362,-0.0002512
 4,0.00023390,-0.00066099,-0.00023300,0.00017843,-0.00010477,-0.0000538
 6,0.00000935,0.00067727,-0.00042359,-0.00021201,-0.00013135,0.00003710
 ,-0.00007475,-0.00031871,0.00032473,-0.00002865,-0.10556716,0.06409324
 ,-0.00519036,0.54477636,-0.00004223,-0.00208261,-0.00200655,0.00019163
 ,0.00023610,0.00013658,-0.00033847,0.00043165,0.00037540,0.00343426,0.
 00094303,-0.00111029,0.00020357,0.00025567,-0.00068379,-0.00023744,0.0
 0018636,0.00018369,-0.00857744,0.00336196,0.00071783,-0.00160281,-0.00
 100946,0.00137422,0.00005181,0.00020940,-0.00026915,-0.01879378,-0.028
 71204,-0.02906614,0.00703078,0.00322217,-0.00019098,0.01287340,-0.0048
 4201,0.00090201,-0.00111190,0.00366820,0.00381979,0.00114171,-0.000796
 71,0.00127075,-0.00161990,0.00002245,-0.00031587,0.00077947,0.00022157
 ,-0.00023154,0.00048818,0.00072832,0.00007522,-0.00033202,0.00048122,-
 0.00006522,0.00022052,0.00005983,0.00028641,0.00038688,-0.00028685,-0.
 00000242,0.05246961,-0.25165643,-0.01744401,0.04989065,0.52997972,0.00
 000646,-0.00031946,-0.00042474,0.00003652,0.00004850,-0.00005798,-0.00
 004969,0.00009200,0.00010218,-0.00040737,-0.00041181,0.00021609,0.0002
 6687,0.00003381,-0.00021222,-0.00005777,0.00008162,0.00001724,-0.00172
 629,0.00025409,0.00055100,-0.00017849,0.00006225,0.00009133,0.00007573
 ,0.00002127,-0.00002291,0.00036184,-0.01285131,-0.00096554,0.00210331,
 0.00025355,-0.00128830,0.00280139,0.00031217,-0.00094611,0.00025414,-0
 .00279170,-0.00345323,0.00073214,0.00104730,-0.00026262,0.00024406,0.0
 0026582,0.00025238,0.00018037,0.00008454,-0.00009677,0.00001058,-0.000
 01637,-0.00004266,-0.00042904,0.00011424,0.00034330,0.00010871,0.00004
 452,-0.00002525,0.00007488,-0.00011355,0.00000552,-0.00638031,0.000622
 22,-0.07107799,-0.01346235,0.04996865,0.49360856,0.00010080,0.00008497
 ,0.00018144,-0.00000922,-0.00002069,-0.00002931,0.00004924,-0.00005837
 ,-0.00003834,-0.00068462,-0.00016396,0.00019926,0.00000347,-0.00006810
 ,-0.00001078,0.00004567,-0.00000412,-0.00000998,0.00082103,-0.00040861
 ,-0.00001542,0.00030778,0.00015886,-0.00017648,0.00000442,-0.00001691,
 0.00003588,-0.00116666,0.00266959,0.00001411,0.00026944,-0.00051991,-0
 .00009554,-0.00079470,0.00030958,-0.00015678,0.00056037,-0.00016014,0.
 00006305,-0.00016464,-0.00035560,-0.00005221,0.00037341,0.00031510,0.0
 0000867,-0.00005679,0.00003480,0.00004208,-0.00002774,-0.00013588,-0.0
 0000148,0.00013911,0.00010091,-0.00004461,-0.00005744,-0.00009281,-0.0
 0002995,0.00002945,0.00000761,0.00000867,0.01690969,0.00812370,0.00479
 033,-0.18147161,-0.10243527,-0.05021675,0.18900649,0.00006322,-0.00004
 542,-0.00022269,-0.00005594,0.00010841,0.00001698,0.00008210,0.0000013
 7,0.00000515,-0.00180120,-0.00057908,0.00059467,0.00004332,-0.00000587
 ,0.00001130,0.00011149,0.00003084,0.00000753,0.00107476,0.00028880,0.0
 0039150,0.00059741,0.00031522,-0.00028209,0.00005929,-0.00000283,0.000
 02862,0.00521063,0.00211724,0.00721724,-0.00207277,-0.00148273,0.00010
 545,-0.00226065,0.00001075,-0.00041107,0.00157608,-0.00150314,-0.00225
 591,-0.00028296,0.00000544,-0.00030957,0.00025490,0.00039994,0.0003386
 8,-0.00028388,-0.00007879,0.00005514,-0.00006787,-0.00020467,-0.000013
 35,0.00015734,-0.00004282,0.00003600,-0.00007860,-0.00006250,-0.000076
 07,-0.00006615,0.00005726,0.00000791,-0.01674575,-0.04275653,-0.016375
 83,-0.09919350,-0.12134619,-0.03722379,0.11335134,0.15442811,0.0000716
 3,-0.00002734,-0.00004832,-0.00001586,0.00003839,-0.00000500,0.0000274
 5,-0.00001041,-0.00000448,-0.00063900,-0.00027553,0.00025399,-0.000030
 03,0.00002084,-0.00004847,0.00001936,0.00003050,-0.00000872,0.00029725
 ,0.00012174,-0.00012365,0.00018456,0.00015351,-0.00009813,0.00004424,-
 0.00001181,0.00002125,-0.00041320,0.00217257,-0.00098872,-0.00058948,-
 0.00026317,0.00055377,-0.00054832,-0.00008465,0.00020161,0.00071399,-0
 .00050523,-0.00021897,-0.00028822,-0.00057646,0.00019724,-0.00001636,-
 0.00006992,0.00001792,-0.00006727,-0.00002870,0.00004511,-0.00000965,-
 0.00002795,0.00000862,0.00030175,0.00002288,-0.00017218,-0.00006363,-0
 .00004932,0.00000834,-0.00002186,0.00006934,-0.00000597,0.00052234,-0.
 00318433,0.00212835,-0.04582686,-0.03567634,-0.06923431,0.05312712,0.0
 4709399,0.07148826,0.00013739,-0.00051646,-0.00041233,0.00006186,0.000
 10711,0.00004623,-0.00009954,0.00006744,0.00005841,0.00083939,0.000152
 93,-0.00028970,0.00001966,0.00003690,-0.00018926,-0.00004704,0.0000551
 5,0.00003285,-0.00143173,0.00070797,-0.00005316,-0.00042813,-0.0001114
 8,0.00030622,0.00006729,0.00002435,-0.00003338,-0.00554415,-0.00343010
 ,-0.00301766,0.00205849,0.00031087,-0.00079114,0.00232212,-0.00087922,
 0.00068922,0.00004655,0.00145836,0.00129713,0.00070019,0.00022135,-0.0
 0012112,-0.00011585,0.00022644,0.00004270,0.00024116,0.00007583,-0.000
 09796,0.00007453,0.00006405,0.00000260,-0.00036643,0.00013563,0.000205
 80,0.00008835,0.00001749,0.00002159,0.00014445,-0.00014024,0.00000185,
 -0.00960424,0.02332678,0.00916662,-0.16974991,-0.00428987,0.10208695,-
 0.01914718,-0.00298811,0.01608417,0.18978796,-0.00008470,0.00043260,0.
 00033931,-0.00004557,-0.00005289,-0.00003603,0.00007171,-0.00007808,-0
 .00005175,-0.00079632,-0.00021454,0.00032348,-0.00002406,-0.00008144,0
 .00012410,0.00002077,-0.00003564,-0.00003401,0.00171410,-0.00052138,0.
 00017489,0.00031180,0.00018808,-0.00025593,-0.00000350,-0.00003614,0.0
 0004518,0.00581685,0.00169759,0.00121773,-0.00044780,0.00049196,0.0007
 7250,-0.00246222,0.00047596,-0.00091398,-0.00022943,-0.00165527,-0.001
 41953,-0.00039205,0.00002285,0.00022123,-0.00036936,-0.00012011,0.0001
 0417,-0.00005486,-0.00004784,0.00001139,0.00006437,0.00011047,0.000009
 35,0.00015464,-0.00001017,-0.00011325,-0.00002438,0.00000190,0.0000338
 5,-0.00006879,0.00004398,0.00001185,0.03377753,-0.02010776,-0.02440829
 ,-0.00366749,-0.04530200,-0.00282956,-0.01361828,0.00225070,0.01154392
 ,-0.01390434,0.06058372,-0.00004596,0.00022750,0.00013928,-0.00002742,
 -0.00004896,-0.00000026,0.00006004,-0.00004172,-0.00003213,-0.00040392
 ,0.00001135,0.00012289,-0.00007151,-0.00001585,0.00007066,0.00003109,-
 0.00004038,-0.00000853,0.00078347,-0.00034220,0.00010022,0.00030455,-0
 .00000488,-0.00012534,-0.00005279,0.00000091,0.00000524,0.00349590,0.0
 0195753,0.00075444,-0.00131832,-0.00004487,0.00074254,-0.00130296,0.00
 045753,-0.00032554,-0.00010580,-0.00083662,-0.00049803,-0.00060976,-0.
 00032277,0.00020703,-0.00003696,-0.00012347,-0.00015343,-0.00015042,-0
 .00006550,0.00007749,-0.00001450,0.00002332,0.00001076,0.00037365,-0.0
 0014223,-0.00022481,-0.00007376,0.00000810,-0.00000333,-0.00013663,0.0
 0014439,-0.00000664,0.00471417,-0.01335601,0.00443152,0.09715303,-0.00
 083485,-0.14005558,-0.00658206,0.00066389,0.00622903,-0.11782142,0.007
 91348,0.15227605,-0.00021682,0.00014623,-0.00000417,0.00004858,-0.0002
 2142,0.00014530,-0.00009673,-0.00004223,-0.00004316,0.00333480,0.00166
 337,-0.00126727,-0.00048571,0.00025624,0.00018367,-0.00006054,-0.00023
 595,0.00005883,-0.00060046,-0.00044492,0.00028575,-0.00039401,-0.00104
 772,0.00058389,-0.00030234,0.00011136,-0.00014983,0.00732647,-0.008473
 29,0.00850460,-0.00033718,0.00092233,-0.00131001,0.00104528,0.00037626
 ,-0.00063902,-0.00509670,0.00209600,-0.00062700,0.00228616,0.00110611,
 -0.00025864,-0.00032121,-0.00038904,0.00015214,0.00012597,-0.00000274,
 -0.00011062,-0.00001341,0.00021676,-0.00004132,0.00017326,-0.00012303,
 0.00012127,0.00035500,0.00040923,-0.00009032,-0.00009056,0.00030395,-0
 .00002533,-0.01307735,0.02102916,-0.02205997,-0.07989670,0.00665989,-0
 .01677474,-0.00719783,0.00301011,-0.02073252,0.00565407,-0.00627332,0.
 02630564,0.54330126,-0.00021414,0.00030464,0.00041462,0.00005594,-0.00
 016529,0.00013222,-0.00019622,-0.00007384,-0.00009162,0.00494589,0.001
 71248,-0.00165390,0.00004911,0.00024264,0.00013139,-0.00014082,-0.0001
 6100,0.00003564,0.00019689,-0.00027524,-0.00029496,-0.00137275,-0.0010
 3547,0.00086822,-0.00020767,0.00007037,-0.00015099,0.00570750,-0.04518
 340,0.01044562,-0.00003609,0.00306285,-0.00278836,-0.00052844,-0.00037
 603,0.00025665,-0.00575600,0.00412125,-0.00088388,0.00046538,0.0007975
 9,0.00005412,-0.00146854,-0.00109324,0.00013015,0.00042648,-0.00000581
 ,-0.00032200,0.00011963,0.00056071,-0.00008746,-0.00067055,-0.00103697
 ,0.00028734,0.00013059,0.00059239,0.00011543,-0.00040694,-0.00009659,0
 .00013436,0.01518026,-0.04295793,0.02266402,-0.00243447,-0.06358245,0.
 01446707,-0.00754983,0.00582876,-0.01995987,-0.00027986,-0.00042608,0.
 00378781,-0.03432582,0.55806488,-0.00008971,0.00047801,0.00070986,-0.0
 0000828,-0.00006387,-0.00007751,-0.00004692,-0.00006664,-0.00007510,0.
 00067592,-0.00007010,-0.00018688,0.00033918,-0.00016676,0.00006826,-0.
 00004767,0.00004885,-0.00004616,0.00053213,-0.00058833,-0.00057450,-0.
 00056829,0.00016992,-0.00000894,0.00007064,-0.00007612,0.00005693,0.00
 714314,-0.00394449,0.00847467,-0.00080935,0.00074227,-0.00191959,-0.00
 077139,0.00050062,0.00000176,-0.00114732,0.00079607,-0.00161659,0.0009
 8173,0.00290962,0.00173184,-0.00031438,-0.00013371,0.00019635,0.000079
 48,-0.00000734,-0.00011416,0.00002766,0.00007589,-0.00007197,-0.000867
 37,-0.00056404,0.00063006,0.00019539,0.00020719,-0.00000324,-0.0001270
 0,-0.00008149,-0.00011635,-0.01524099,0.01105919,-0.00569291,-0.016914
 52,0.02975181,-0.16748617,0.00309160,0.00118100,-0.00415188,-0.0074436
 7,0.00583378,-0.02164550,-0.04449773,-0.02450318,0.46990219,-0.0000134
 4,-0.00039198,-0.00023908,0.00012500,0.00004873,0.00010008,-0.00022477
 ,0.00002366,0.00002977,0.00288968,0.00041614,-0.00090466,0.00038671,-0
 .00010372,-0.00012026,-0.00010235,0.00008379,0.00000133,-0.00112340,0.
 00072142,0.00010878,-0.00115854,-0.00018483,0.00066069,0.00012872,0.00
 001624,-0.00001087,-0.04951103,0.01958176,-0.01312822,0.00410710,-0.00
 377066,0.00333384,0.00174317,-0.00088218,-0.00005324,-0.00084936,0.010
 16935,-0.00225664,-0.00148633,-0.01534624,-0.00095637,0.00042826,0.000
 49202,-0.00060806,0.00005401,0.00015513,0.00016951,-0.00002789,-0.0004
 8470,0.00025913,0.00047800,0.00110427,-0.00105385,-0.00036829,-0.00095
 049,0.00011580,0.00129672,-0.00047156,-0.00019157,-0.00748022,-0.00538
 641,-0.02153077,-0.01495189,-0.00562529,-0.01968053,0.00085550,0.00031
 083,-0.00255934,0.00153414,-0.00005794,-0.00181766,-0.10860510,-0.0520
 9733,-0.02718393,0.16570739,0.00063777,-0.00073274,-0.00096576,-0.0001
 9657,0.00047466,-0.00027040,0.00046233,0.00020832,0.00020263,-0.010304
 55,-0.00404434,0.00367002,0.00070445,0.00011569,-0.00028796,0.00042441
 ,0.00027725,-0.00005326,0.00042222,0.00117527,0.00059122,0.00286516,0.
 00201706,-0.00181928,0.00035494,-0.00009851,0.00021272,0.02424865,-0.0
 9474413,0.02851113,-0.00050423,-0.00526407,0.00753846,-0.00074327,-0.0
 0057431,0.00015256,0.01432401,-0.00776899,0.00291686,-0.01588838,-0.03
 526517,-0.00024128,0.00213354,0.00154112,-0.00024077,-0.00085415,-0.00
 000784,0.00095799,-0.00038519,-0.00084489,-0.00002021,0.00962912,-0.00
 291422,-0.00485347,-0.00249112,-0.00087348,0.00021707,-0.00160855,0.00
 221449,0.00032827,0.01458728,0.01220193,0.01774728,-0.00830287,-0.0206
 0142,-0.01305301,-0.00043429,0.00206587,-0.00144489,0.00055761,0.00156
 155,-0.00063953,-0.06629130,-0.20420720,-0.06113719,0.07515012,0.42201
 296,0.00012778,-0.00119679,-0.00144543,0.00006335,0.00023801,0.0000873
 0,0.00003499,0.00023428,0.00018738,-0.00140868,-0.00011323,0.00041996,
 -0.00036185,-0.00002162,-0.00042212,-0.00007659,0.00010611,0.00009130,
 -0.00224626,0.00177419,0.00136759,0.00050770,-0.00009692,0.00027934,0.
 00006757,0.00011387,-0.00006363,-0.01314899,0.02535866,-0.05209321,0.0
 0193448,0.00986053,-0.00255800,0.00344231,-0.00192524,-0.00070886,0.00
 277322,-0.00369837,0.00589581,-0.00530285,-0.01002101,0.00423380,-0.00
 356100,-0.00184394,-0.00114127,0.00048130,0.00014945,0.00014397,0.0007
 3531,0.00105597,0.00014130,0.00268866,-0.00061047,-0.00200029,-0.00036
 904,-0.00007487,0.00046502,-0.00006272,0.00050628,0.00008309,-0.018606
 04,-0.00539747,-0.01532016,-0.03070912,-0.02604027,-0.02375507,-0.0033
 1265,0.00134355,-0.00634940,0.00153818,-0.00055361,0.00264527,-0.02943
 904,-0.03969293,-0.09753971,0.09383541,0.04400523,0.17182273,0.0000460
 0,-0.00015335,-0.00007718,0.00002278,0.00005671,-0.00001001,-0.0000542
 3,0.00003007,0.00001510,0.00029039,-0.00015528,-0.00009262,0.00007706,
 -0.00001408,-0.00007446,-0.00003744,0.00006347,-0.00000016,-0.00038799
 ,0.00023922,0.00001238,-0.00035610,0.00001598,0.00016850,0.00008108,0.
 00000049,-0.00000574,-0.00150621,-0.00249489,-0.00152439,0.00055224,0.
 00039361,-0.00004589,0.00059919,-0.00025125,0.00005022,0.00019651,0.00
 030572,0.00038982,0.00006041,-0.00006070,0.00006945,-0.00024745,-0.000
 16001,-0.00000318,0.00009828,0.00000555,-0.00004884,0.00003226,0.00008
 259,-0.00000059,-0.00007780,-0.00002404,0.00004048,0.00001845,0.000066
 28,0.00003726,-0.00000863,-0.00004009,0.00000053,0.00062923,0.00264415
 ,-0.00338414,-0.00637504,0.00602343,0.00687237,-0.00022531,-0.00038855
 ,-0.00053621,0.00151527,-0.00029408,-0.00055973,-0.16444963,0.11495694
 ,-0.00147240,0.01655164,-0.01456635,-0.00020281,0.17090688,0.00003933,
 0.00003775,-0.00003112,-0.00004200,0.00001801,-0.00003732,0.00009459,0
 .00000704,0.00000921,-0.00151597,-0.00045185,0.00052836,0.00004280,-0.
 00001920,0.00000397,0.00006668,0.00001694,-0.00001282,0.00031400,-0.00
 003964,0.00003641,0.00055320,0.00024637,-0.00032523,0.00000289,-0.0000
 1356,0.00003012,-0.00076751,0.00532562,-0.00499926,-0.00061575,-0.0006
 2731,0.00071459,-0.00049170,0.00009447,0.00000262,0.00187592,-0.001717
 59,-0.00001563,-0.00169067,-0.00156089,0.00014769,0.00041186,0.0003030
 0,-0.00001597,-0.00017372,-0.00001107,0.00014225,-0.00005485,-0.000121
 64,-0.00000898,0.00099736,-0.00025398,-0.00052835,-0.00028881,-0.00015
 989,0.00000706,-0.00020644,0.00026159,0.00004606,0.00095833,-0.0002271
 8,0.00220605,0.00611351,-0.00338934,-0.00187362,0.00055460,-0.00047644
 ,0.00128071,-0.00097298,0.00034938,0.00070070,0.11094772,-0.15507169,0
 .00472192,0.00946945,-0.04174144,-0.00418530,-0.12377531,0.19294365,0.
 00002270,-0.00018054,-0.00024663,0.00001426,0.00000829,0.00001983,0.00
 000060,0.00003755,0.00003680,0.00000898,0.00012093,-0.00002006,-0.0000
 6378,0.00004619,-0.00001377,0.00001180,-0.00002124,0.00001971,-0.00050
 196,0.00014961,0.00021902,0.00010326,-0.00009492,0.00003559,-0.0000296
 9,0.00002599,-0.00002587,-0.00193559,0.00091729,-0.00352656,0.00032554
 ,0.00005835,0.00018175,0.00082106,-0.00006417,-0.00015924,0.00023534,-
 0.00001187,0.00063889,-0.00045220,-0.00048065,0.00012676,-0.00001530,0
 .00001701,-0.00003077,0.00001610,0.00001284,0.00001676,0.00001407,0.00
 000541,0.00000119,0.00019090,-0.00002872,-0.00014713,-0.00007100,-0.00
 005878,0.00002837,-0.00001148,0.00002518,0.00002028,-0.00278184,0.0051
 1168,-0.00514003,-0.01810249,0.02148440,0.00577003,-0.00043816,-0.0011
 6385,-0.00054083,0.00089478,-0.00007823,0.00123256,0.00085058,0.003575
 61,-0.05094168,0.00485816,-0.01808057,0.00151399,0.00093306,0.00126947
 ,0.04985944,0.00004719,-0.00000069,0.00008459,-0.00001168,0.00006532,-
 0.00005744,0.00004559,0.00000304,0.00000685,-0.00152101,-0.00051814,0.
 00050696,0.00017881,-0.00011496,0.00001516,0.00004640,0.00005619,-0.00
 002083,0.00028143,0.00004534,-0.00010909,0.00027837,0.00043127,-0.0003
 3195,0.00010041,-0.00005770,0.00006406,-0.00414962,0.00555566,-0.00235
 139,0.00006533,-0.00072689,0.00062684,-0.00046618,0.00001091,0.0000915
 9,0.00180553,-0.00080389,-0.00027385,-0.00024327,-0.00129530,-0.000210
 94,0.00024412,0.00025557,-0.00005151,-0.00007112,0.00000791,0.00006401
 ,-0.00002350,-0.00014403,0.00002299,0.00042761,0.00025959,-0.00020414,
 -0.00011237,-0.00015938,-0.00001814,0.00008570,0.00004489,0.00000568,0
 .00141417,-0.00135273,0.00103238,0.00632733,0.00316063,-0.00685299,0.0
 0152786,0.00038313,0.00096395,0.00124134,0.00088670,-0.00208995,-0.182
 40858,-0.03454915,0.10441405,-0.01038346,-0.02393078,0.00057738,-0.017
 95185,-0.00184650,0.01510228,0.20322544,0.00005721,0.00004489,0.000089
 56,-0.00002746,0.00006133,-0.00006216,0.00000994,0.00001011,0.00000424
 ,-0.00083253,-0.00064938,0.00031913,0.00027590,-0.00006425,-0.00004125
 ,0.00000458,0.00009175,-0.00002689,0.00012250,0.00006226,-0.00015645,-
 0.00003041,0.00027450,-0.00011779,0.00009187,-0.00002562,0.00003424,-0
 .00593047,0.00428654,-0.00156907,0.00013131,-0.00094346,0.00075376,-0.
 00023195,-0.00003703,0.00015483,0.00152151,-0.00012045,-0.00041632,-0.
 00019760,-0.00162017,-0.00032188,0.00031863,0.00020926,-0.00003582,-0.
 00007203,0.00000870,0.00007510,-0.00005882,-0.00014911,0.00002679,0.00
 059327,0.00022529,-0.00028720,-0.00009801,-0.00013177,-0.00001787,0.00
 008645,0.00011050,0.00000523,0.00066478,0.00140889,-0.00017416,-0.0051
 5103,-0.00040011,0.00371056,0.00033170,0.00067832,-0.00035247,-0.00003
 359,0.00047860,0.00096333,-0.03138395,-0.05961034,0.03292713,-0.031989
 57,-0.02618342,0.01072591,0.01749375,0.00627891,-0.01260226,0.05433401
 ,0.07570525,-0.00003129,-0.00001245,-0.00007716,0.00001020,-0.00004899
 ,0.00003147,-0.00001240,0.00000259,0.00000371,0.00073627,0.00040052,-0
 .00032148,-0.00006308,0.00011524,0.00012402,0.00000096,-0.00007266,0.0
 0002488,-0.00024115,-0.00009046,0.00017925,-0.00006675,-0.00028663,0.0
 0012693,-0.00010252,0.00004422,-0.00005651,-0.00009331,-0.00075408,-0.
 00016656,0.00001933,0.00023045,0.00025763,0.00044546,0.00002064,-0.000
 14714,-0.00076655,0.00030093,0.00027901,-0.00000144,-0.00013024,-0.000
 02811,-0.00012788,-0.00013091,-0.00003715,-0.00000006,-0.00000935,0.00
 000114,0.00001333,0.00006369,0.00000448,0.00005296,0.00000173,-0.00006
 860,0.00002090,0.00003046,0.00001363,-0.00000634,0.00003005,0.00000600
 ,-0.00173007,-0.00010822,0.00308872,0.02635550,0.00359065,-0.02155018,
 -0.00035171,-0.00076435,0.00084553,-0.00220450,0.00201395,-0.00596587,
 0.10087901,0.03292888,-0.12950305,-0.01117748,-0.00394385,0.01401930,-
 0.00055085,0.00018639,0.00107160,-0.11100655,-0.03360823,0.13784452\\0
 .00000028,0.00000071,-0.00000182,0.00000062,0.00000049,-0.00000118,0.0
 0000027,0.00000080,-0.00000216,-0.00000079,0.00000048,-0.00000177,-0.0
 0000084,0.00000018,-0.00000136,-0.00000096,-0.00000017,-0.00000095,0.0
 0000039,0.00000056,-0.00000184,-0.00000108,0.00000050,-0.00000276,-0.0
 0000113,0.00000040,-0.00000292,-0.00000032,0.00000073,-0.00000024,0.00
 000083,-0.00000016,0.00000115,0.00000095,0.00000133,-0.00000070,-0.000
 00043,-0.00000031,0.00000005,-0.00000073,-0.00000121,0.00000150,0.0000
 0117,-0.00000029,0.00000211,0.00000139,-0.00000027,0.00000257,0.000001
 26,-0.00000040,0.00000230,0.00000018,-0.00000080,0.00000228,-0.0000000
 8,-0.00000095,0.00000304,-0.00000037,-0.00000082,0.00000266,0.00000145
 ,0.00000011,0.00000041,-0.00000008,0.00000058,-0.00000106,0.00000038,0
 .00000042,-0.00000092,0.00000076,0.00000021,0.00000048,-0.00000025,-0.
 00000078,0.00000056,-0.00000107,-0.00000070,0.00000100,-0.00000068,-0.
 00000047,0.00000022,-0.00000110,-0.00000018,-0.00000066\\\@
 The archive entry for this job was punched.


 THE WHOLE OF SCIENCE IS NOTHING MORE THAN A REFINEMENT OF EVERYDAY THINKING.
                                                              -- A. EINSTEIN
 Job cpu time:       1 days  4 hours 19 minutes 50.6 seconds.
 Elapsed time:       0 days  7 hours  5 minutes 17.9 seconds.
 File lengths (MBytes):  RWF=    939 Int=      0 D2E=      0 Chk=     34 Scr=      1
 Normal termination of Gaussian 16 at Fri Feb 16 09:41:20 2024.
