 Entering Gaussian System, Link 0=/opt/software/gaussian/g16.c01/g16
 Initial command:
 /opt/software/gaussian/g16.c01/l1.exe "/scratch/arhender/17301912/Gau-18509.inp" -scrdir="/scratch/arhender/17301912/"
 Entering Link 1 = /opt/software/gaussian/g16.c01/l1.exe PID=     18510.
  
 Copyright (c) 1988-2019, Gaussian, Inc.  All Rights Reserved.
  
 This is part of the Gaussian(R) 16 program.  It is based on
 the Gaussian(R) 09 system (copyright 2009, Gaussian, Inc.),
 the Gaussian(R) 03 system (copyright 2003, Gaussian, Inc.),
 the Gaussian(R) 98 system (copyright 1998, Gaussian, Inc.),
 the Gaussian(R) 94 system (copyright 1995, Gaussian, Inc.),
 the Gaussian 92(TM) system (copyright 1992, Gaussian, Inc.),
 the Gaussian 90(TM) system (copyright 1990, Gaussian, Inc.),
 the Gaussian 88(TM) system (copyright 1988, Gaussian, Inc.),
 the Gaussian 86(TM) system (copyright 1986, Carnegie Mellon
 University), and the Gaussian 82(TM) system (copyright 1983,
 Carnegie Mellon University). Gaussian is a federally registered
 trademark of Gaussian, Inc.
  
 This software contains proprietary and confidential information,
 including trade secrets, belonging to Gaussian, Inc.
  
 This software is provided under written license and may be
 used, copied, transmitted, or stored only in accord with that
 written license.
  
 The following legend is applicable only to US Government
 contracts under FAR:
  
                    RESTRICTED RIGHTS LEGEND
  
 Use, reproduction and disclosure by the US Government is
 subject to restrictions as set forth in subparagraphs (a)
 and (c) of the Commercial Computer Software - Restricted
 Rights clause in FAR 52.227-19.
  
 Gaussian, Inc.
 340 Quinnipiac St., Bldg. 40, Wallingford CT 06492
  
  
 ---------------------------------------------------------------
 Warning -- This program may not be used in any manner that
 competes with the business of Gaussian, Inc. or will provide
 assistance to any competitor of Gaussian, Inc.  The licensee
 of this program is prohibited from giving any competitor of
 Gaussian, Inc. access to this program.  By using this program,
 the user acknowledges that Gaussian, Inc. is engaged in the
 business of creating and licensing software in the field of
 computational chemistry and represents and warrants to the
 licensee that it is not a competitor of Gaussian, Inc. and that
 it will not use this program in any manner prohibited above.
 ---------------------------------------------------------------
  

 Cite this work as:
 Gaussian 16, Revision C.01,
 M. J. Frisch, G. W. Trucks, H. B. Schlegel, G. E. Scuseria, 
 M. A. Robb, J. R. Cheeseman, G. Scalmani, V. Barone, 
 G. A. Petersson, H. Nakatsuji, X. Li, M. Caricato, A. V. Marenich, 
 J. Bloino, B. G. Janesko, R. Gomperts, B. Mennucci, H. P. Hratchian, 
 J. V. Ortiz, A. F. Izmaylov, J. L. Sonnenberg, D. Williams-Young, 
 F. Ding, F. Lipparini, F. Egidi, J. Goings, B. Peng, A. Petrone, 
 T. Henderson, D. Ranasinghe, V. G. Zakrzewski, J. Gao, N. Rega, 
 G. Zheng, W. Liang, M. Hada, M. Ehara, K. Toyota, R. Fukuda, 
 J. Hasegawa, M. Ishida, T. Nakajima, Y. Honda, O. Kitao, H. Nakai, 
 T. Vreven, K. Throssell, J. A. Montgomery, Jr., J. E. Peralta, 
 F. Ogliaro, M. J. Bearpark, J. J. Heyd, E. N. Brothers, K. N. Kudin, 
 V. N. Staroverov, T. A. Keith, R. Kobayashi, J. Normand, 
 K. Raghavachari, A. P. Rendell, J. C. Burant, S. S. Iyengar, 
 J. Tomasi, M. Cossi, J. M. Millam, M. Klene, C. Adamo, R. Cammi, 
 J. W. Ochterski, R. L. Martin, K. Morokuma, O. Farkas, 
 J. B. Foresman, and D. J. Fox, Gaussian, Inc., Wallingford CT, 2019.
 
 ******************************************
 Gaussian 16:  ES64L-G16RevC.01  3-Jul-2019
                27-Feb-2024 
 ******************************************
 %chk=TSOpt_maxInHbiL2mL_loseOH_EGOHdepScan_REPROTONATE.chk
 %mem=1600MB
 %nprocs=4
 Will use up to    4 processors via shared memory.
 ------------------------------------------------------------------
 # opt=(calcall,ts,noeigen) freq wb97xd/def2tzvpp geom=connectivity
 ------------------------------------------------------------------
 1/5=1,10=4,11=1,18=20,26=3,38=1,57=2/1,3;
 2/9=110,12=2,17=6,18=5,40=1/2;
 3/5=44,7=202,11=2,25=1,30=1,71=2,74=-58,140=1/1,2,3;
 4//1;
 5/5=2,38=5/2;
 8/6=4,10=90,11=11/1;
 11/6=1,8=1,9=11,15=111,16=1/1,2,10;
 10/6=1/2;
 6/7=2,8=2,9=2,10=2,18=1,28=1/1;
 7/10=1,25=1/1,2,3,16;
 1/5=1,10=4,11=1,18=20,26=3/3(3);
 2/9=110/2;
 7/8=1,9=1,25=1,44=-1/16;
 99//99;
 2/9=110/2;
 3/5=44,7=202,11=2,25=1,30=1,71=2,74=-58,140=1/1,2,3;
 4/5=5,16=3,69=1/1;
 5/5=2,38=5/2;
 8/6=4,10=90,11=11/1;
 11/6=1,8=1,9=11,15=111,16=1/1,2,10;
 10/6=1/2;
 7/10=1,25=1/1,2,3,16;
 1/5=1,10=4,11=1,18=20,26=3/3(-8);
 2/9=110/2;
 6/7=2,8=2,9=2,10=2,18=1,19=2,28=1/1;
 7/8=1,9=1,25=1,44=-1/16;
 99//99;
 ----------------------------------------------------------------------
 Take TS opt from hydroxyl loss of HbiL2moL collapse deprotonated and r
 eprotonate free ligand hydroxyl
 ----------------------------------------------------------------------
 Symbolic Z-matrix:
 Charge = -2 Multiplicity = 1
 Si                    0.48716   0.00403   0.0638 
 O                     0.53306   1.24247  -1.18508 
 O                     0.91284  -1.19644   1.29074 
 O                     0.55761  -1.25784  -1.16262 
 O                    -1.21215  -0.01521   0.35244 
 O                    -4.40756   0.45155   0.49643 
 O                     0.91582   1.23186   1.26218 
 C                    -3.63581  -0.39877  -0.17529 
 H                    -4.09368  -0.73143  -1.18746 
 H                    -3.45748  -1.39615   0.34258 
 C                    -2.2024    0.035    -0.63055 
 H                    -2.29825   1.05887  -1.03798 
 H                    -1.92264  -0.62421  -1.47362 
 C                     0.92233   2.50142   0.74068 
 H                    -0.05374   3.007     0.89877 
 H                     1.69951   3.12921   1.22539 
 C                     1.19328   2.37422  -0.76485 
 H                     0.82435   3.27187  -1.3033 
 H                     2.27895   2.26438  -0.92224 
 C                     1.19332  -2.38808  -0.70433 
 H                     0.82308  -3.29363  -1.22899 
 H                     2.28334  -2.29709  -0.84524 
 C                     0.89421  -2.47706   0.79806 
 H                    -0.09818  -2.95314   0.94792 
 H                     1.64597  -3.11384   1.31031 
 O                     2.98841   0.0082   -0.28771 
 H                     3.05481   0.02465   0.66724 
 H                    -4.00882   1.13681   1.03775 
 
 Add virtual bond connecting atoms H10        and C8         Dist= 2.15D+00.
 Add virtual bond connecting atoms H9         and C8         Dist= 2.19D+00.
 Add virtual bond connecting atoms O26        and Si1        Dist= 4.77D+00.
 Add virtual bond connecting atoms O26        and H19        Dist= 4.63D+00.
 Add virtual bond connecting atoms O26        and H22        Dist= 4.68D+00.
 Add virtual bond connecting atoms H27        and O3         Dist= 4.81D+00.
 Add virtual bond connecting atoms H27        and O7         Dist= 4.78D+00.

 GradGradGradGradGradGradGradGradGradGradGradGradGradGradGradGradGradGrad
 Berny optimization.
 Initialization pass.
                           ----------------------------
                           !    Initial Parameters    !
                           ! (Angstroms and Degrees)  !
 --------------------------                            --------------------------
 ! Name  Definition              Value          Derivative Info.                !
 --------------------------------------------------------------------------------
 ! R1    R(1,2)                  1.7594         calculate D2E/DX2 analytically  !
 ! R2    R(1,3)                  1.7685         calculate D2E/DX2 analytically  !
 ! R3    R(1,4)                  1.7611         calculate D2E/DX2 analytically  !
 ! R4    R(1,5)                  1.7238         calculate D2E/DX2 analytically  !
 ! R5    R(1,7)                  1.7684         calculate D2E/DX2 analytically  !
 ! R6    R(1,26)                 2.5258         calculate D2E/DX2 analytically  !
 ! R7    R(2,17)                 1.376          calculate D2E/DX2 analytically  !
 ! R8    R(3,23)                 1.3722         calculate D2E/DX2 analytically  !
 ! R9    R(3,27)                 2.5432         calculate D2E/DX2 analytically  !
 ! R10   R(4,20)                 1.3754         calculate D2E/DX2 analytically  !
 ! R11   R(5,11)                 1.3962         calculate D2E/DX2 analytically  !
 ! R12   R(6,8)                  1.3304         calculate D2E/DX2 analytically  !
 ! R13   R(6,28)                 0.96           calculate D2E/DX2 analytically  !
 ! R14   R(7,14)                 1.3725         calculate D2E/DX2 analytically  !
 ! R15   R(7,27)                 2.5272         calculate D2E/DX2 analytically  !
 ! R16   R(8,9)                  1.1597         calculate D2E/DX2 analytically  !
 ! R17   R(8,10)                 1.1379         calculate D2E/DX2 analytically  !
 ! R18   R(8,11)                 1.5653         calculate D2E/DX2 analytically  !
 ! R19   R(11,12)                1.1061         calculate D2E/DX2 analytically  !
 ! R20   R(11,13)                1.1062         calculate D2E/DX2 analytically  !
 ! R21   R(14,15)                1.1105         calculate D2E/DX2 analytically  !
 ! R22   R(14,16)                1.1104         calculate D2E/DX2 analytically  !
 ! R23   R(14,17)                1.535          calculate D2E/DX2 analytically  !
 ! R24   R(17,18)                1.1099         calculate D2E/DX2 analytically  !
 ! R25   R(17,19)                1.1025         calculate D2E/DX2 analytically  !
 ! R26   R(19,26)                2.4487         calculate D2E/DX2 analytically  !
 ! R27   R(20,21)                1.1101         calculate D2E/DX2 analytically  !
 ! R28   R(20,22)                1.1028         calculate D2E/DX2 analytically  !
 ! R29   R(20,23)                1.5345         calculate D2E/DX2 analytically  !
 ! R30   R(22,26)                2.4743         calculate D2E/DX2 analytically  !
 ! R31   R(23,24)                1.1108         calculate D2E/DX2 analytically  !
 ! R32   R(23,25)                1.1104         calculate D2E/DX2 analytically  !
 ! R33   R(26,27)                0.9574         calculate D2E/DX2 analytically  !
 ! A1    A(2,1,3)              164.5726         calculate D2E/DX2 analytically  !
 ! A2    A(2,1,4)               90.5152         calculate D2E/DX2 analytically  !
 ! A3    A(2,1,5)               98.7678         calculate D2E/DX2 analytically  !
 ! A4    A(2,1,7)               89.1964         calculate D2E/DX2 analytically  !
 ! A5    A(2,1,26)              82.7741         calculate D2E/DX2 analytically  !
 ! A6    A(3,1,4)               89.2624         calculate D2E/DX2 analytically  !
 ! A7    A(3,1,5)               96.5196         calculate D2E/DX2 analytically  !
 ! A8    A(3,1,7)               86.7222         calculate D2E/DX2 analytically  !
 ! A9    A(3,1,26)              81.9124         calculate D2E/DX2 analytically  !
 ! A10   A(4,1,5)               98.514          calculate D2E/DX2 analytically  !
 ! A11   A(4,1,7)              163.6792         calculate D2E/DX2 analytically  !
 ! A12   A(4,1,26)              82.2213         calculate D2E/DX2 analytically  !
 ! A13   A(5,1,7)               97.6565         calculate D2E/DX2 analytically  !
 ! A14   A(7,1,26)              81.5542         calculate D2E/DX2 analytically  !
 ! A15   A(1,2,17)             112.0051         calculate D2E/DX2 analytically  !
 ! A16   A(1,3,23)             112.4034         calculate D2E/DX2 analytically  !
 ! A17   A(1,3,27)              72.9459         calculate D2E/DX2 analytically  !
 ! A18   A(23,3,27)            111.808          calculate D2E/DX2 analytically  !
 ! A19   A(1,4,20)             112.041          calculate D2E/DX2 analytically  !
 ! A20   A(1,5,11)             125.5133         calculate D2E/DX2 analytically  !
 ! A21   A(8,6,28)             120.0            calculate D2E/DX2 analytically  !
 ! A22   A(1,7,14)             112.6994         calculate D2E/DX2 analytically  !
 ! A23   A(1,7,27)              73.3797         calculate D2E/DX2 analytically  !
 ! A24   A(14,7,27)            110.3894         calculate D2E/DX2 analytically  !
 ! A25   A(6,8,9)              113.2662         calculate D2E/DX2 analytically  !
 ! A26   A(6,8,10)             114.9207         calculate D2E/DX2 analytically  !
 ! A27   A(6,8,11)             120.0639         calculate D2E/DX2 analytically  !
 ! A28   A(9,8,10)             101.9861         calculate D2E/DX2 analytically  !
 ! A29   A(9,8,11)             100.7904         calculate D2E/DX2 analytically  !
 ! A30   A(10,8,11)            103.4006         calculate D2E/DX2 analytically  !
 ! A31   A(5,11,8)             115.7699         calculate D2E/DX2 analytically  !
 ! A32   A(5,11,12)            110.7374         calculate D2E/DX2 analytically  !
 ! A33   A(5,11,13)            109.6205         calculate D2E/DX2 analytically  !
 ! A34   A(8,11,12)            106.5165         calculate D2E/DX2 analytically  !
 ! A35   A(8,11,13)            106.7459         calculate D2E/DX2 analytically  !
 ! A36   A(12,11,13)           107.0259         calculate D2E/DX2 analytically  !
 ! A37   A(7,14,15)            111.2752         calculate D2E/DX2 analytically  !
 ! A38   A(7,14,16)            111.1254         calculate D2E/DX2 analytically  !
 ! A39   A(7,14,17)            107.2682         calculate D2E/DX2 analytically  !
 ! A40   A(15,14,16)           107.1956         calculate D2E/DX2 analytically  !
 ! A41   A(15,14,17)           109.4196         calculate D2E/DX2 analytically  !
 ! A42   A(16,14,17)           110.5748         calculate D2E/DX2 analytically  !
 ! A43   A(2,17,14)            106.4392         calculate D2E/DX2 analytically  !
 ! A44   A(2,17,18)            110.9507         calculate D2E/DX2 analytically  !
 ! A45   A(2,17,19)            110.3011         calculate D2E/DX2 analytically  !
 ! A46   A(14,17,18)           110.4952         calculate D2E/DX2 analytically  !
 ! A47   A(14,17,19)           108.7896         calculate D2E/DX2 analytically  !
 ! A48   A(18,17,19)           109.7952         calculate D2E/DX2 analytically  !
 ! A49   A(17,19,26)           109.883          calculate D2E/DX2 analytically  !
 ! A50   A(4,20,21)            111.0205         calculate D2E/DX2 analytically  !
 ! A51   A(4,20,22)            110.2712         calculate D2E/DX2 analytically  !
 ! A52   A(4,20,23)            106.4873         calculate D2E/DX2 analytically  !
 ! A53   A(21,20,22)           109.6669         calculate D2E/DX2 analytically  !
 ! A54   A(21,20,23)           110.5132         calculate D2E/DX2 analytically  !
 ! A55   A(22,20,23)           108.8172         calculate D2E/DX2 analytically  !
 ! A56   A(20,22,26)           109.2518         calculate D2E/DX2 analytically  !
 ! A57   A(3,23,20)            107.1432         calculate D2E/DX2 analytically  !
 ! A58   A(3,23,24)            111.3247         calculate D2E/DX2 analytically  !
 ! A59   A(3,23,25)            111.1219         calculate D2E/DX2 analytically  !
 ! A60   A(20,23,24)           109.3347         calculate D2E/DX2 analytically  !
 ! A61   A(20,23,25)           110.6682         calculate D2E/DX2 analytically  !
 ! A62   A(24,23,25)           107.2666         calculate D2E/DX2 analytically  !
 ! A63   A(1,26,19)             75.5627         calculate D2E/DX2 analytically  !
 ! A64   A(1,26,22)             75.3826         calculate D2E/DX2 analytically  !
 ! A65   A(1,26,27)             85.9797         calculate D2E/DX2 analytically  !
 ! A66   A(19,26,22)           135.8463         calculate D2E/DX2 analytically  !
 ! A67   A(19,26,27)           105.2321         calculate D2E/DX2 analytically  !
 ! A68   A(22,26,27)           105.1004         calculate D2E/DX2 analytically  !
 ! A69   A(3,27,7)              57.2331         calculate D2E/DX2 analytically  !
 ! A70   A(3,27,26)            100.2463         calculate D2E/DX2 analytically  !
 ! A71   A(7,27,26)            100.6215         calculate D2E/DX2 analytically  !
 ! A72   L(5,1,26,2,-1)        181.542          calculate D2E/DX2 analytically  !
 ! A73   L(5,1,26,2,-2)        179.2115         calculate D2E/DX2 analytically  !
 ! D1    D(3,1,2,17)           -58.1246         calculate D2E/DX2 analytically  !
 ! D2    D(4,1,2,17)          -147.2188         calculate D2E/DX2 analytically  !
 ! D3    D(5,1,2,17)           114.085          calculate D2E/DX2 analytically  !
 ! D4    D(7,1,2,17)            16.4618         calculate D2E/DX2 analytically  !
 ! D5    D(26,1,2,17)          -65.1265         calculate D2E/DX2 analytically  !
 ! D6    D(2,1,3,23)           -98.1831         calculate D2E/DX2 analytically  !
 ! D7    D(2,1,3,27)             8.9053         calculate D2E/DX2 analytically  !
 ! D8    D(4,1,3,23)            -8.9192         calculate D2E/DX2 analytically  !
 ! D9    D(4,1,3,27)            98.1692         calculate D2E/DX2 analytically  !
 ! D10   D(5,1,3,23)            89.5661         calculate D2E/DX2 analytically  !
 ! D11   D(5,1,3,27)          -163.3455         calculate D2E/DX2 analytically  !
 ! D12   D(7,1,3,23)          -173.0929         calculate D2E/DX2 analytically  !
 ! D13   D(7,1,3,27)           -66.0045         calculate D2E/DX2 analytically  !
 ! D14   D(26,1,3,23)          -91.167          calculate D2E/DX2 analytically  !
 ! D15   D(26,1,3,27)           15.9214         calculate D2E/DX2 analytically  !
 ! D16   D(2,1,4,20)           149.6112         calculate D2E/DX2 analytically  !
 ! D17   D(3,1,4,20)           -14.9621         calculate D2E/DX2 analytically  !
 ! D18   D(5,1,4,20)          -111.444          calculate D2E/DX2 analytically  !
 ! D19   D(7,1,4,20)            60.7114         calculate D2E/DX2 analytically  !
 ! D20   D(26,1,4,20)           66.9758         calculate D2E/DX2 analytically  !
 ! D21   D(2,1,5,11)            42.2895         calculate D2E/DX2 analytically  !
 ! D22   D(3,1,5,11)          -139.7904         calculate D2E/DX2 analytically  !
 ! D23   D(4,1,5,11)           -49.5608         calculate D2E/DX2 analytically  !
 ! D24   D(7,1,5,11)           132.6571         calculate D2E/DX2 analytically  !
 ! D25   D(2,1,7,14)             7.0336         calculate D2E/DX2 analytically  !
 ! D26   D(2,1,7,27)           -98.5864         calculate D2E/DX2 analytically  !
 ! D27   D(3,1,7,14)           172.1493         calculate D2E/DX2 analytically  !
 ! D28   D(3,1,7,27)            66.5293         calculate D2E/DX2 analytically  !
 ! D29   D(4,1,7,14)            96.1226         calculate D2E/DX2 analytically  !
 ! D30   D(4,1,7,27)            -9.4974         calculate D2E/DX2 analytically  !
 ! D31   D(5,1,7,14)           -91.7053         calculate D2E/DX2 analytically  !
 ! D32   D(5,1,7,27)           162.6747         calculate D2E/DX2 analytically  !
 ! D33   D(26,1,7,14)           89.8477         calculate D2E/DX2 analytically  !
 ! D34   D(26,1,7,27)          -15.7723         calculate D2E/DX2 analytically  !
 ! D35   D(2,1,26,19)           26.9656         calculate D2E/DX2 analytically  !
 ! D36   D(2,1,26,22)         -119.4214         calculate D2E/DX2 analytically  !
 ! D37   D(2,1,26,27)          133.8272         calculate D2E/DX2 analytically  !
 ! D38   D(3,1,26,19)         -151.1574         calculate D2E/DX2 analytically  !
 ! D39   D(3,1,26,22)           62.4556         calculate D2E/DX2 analytically  !
 ! D40   D(3,1,26,27)          -44.2958         calculate D2E/DX2 analytically  !
 ! D41   D(4,1,26,19)          118.4823         calculate D2E/DX2 analytically  !
 ! D42   D(4,1,26,22)          -27.9047         calculate D2E/DX2 analytically  !
 ! D43   D(4,1,26,27)         -134.6561         calculate D2E/DX2 analytically  !
 ! D44   D(7,1,26,19)          -63.2941         calculate D2E/DX2 analytically  !
 ! D45   D(7,1,26,22)          150.3189         calculate D2E/DX2 analytically  !
 ! D46   D(7,1,26,27)           43.5675         calculate D2E/DX2 analytically  !
 ! D47   D(1,2,17,14)          -32.6764         calculate D2E/DX2 analytically  !
 ! D48   D(1,2,17,18)         -152.9325         calculate D2E/DX2 analytically  !
 ! D49   D(1,2,17,19)           85.1774         calculate D2E/DX2 analytically  !
 ! D50   D(1,3,23,20)           27.4418         calculate D2E/DX2 analytically  !
 ! D51   D(1,3,23,24)          -92.0543         calculate D2E/DX2 analytically  !
 ! D52   D(1,3,23,25)          148.448          calculate D2E/DX2 analytically  !
 ! D53   D(27,3,23,20)         -52.3796         calculate D2E/DX2 analytically  !
 ! D54   D(27,3,23,24)        -171.8756         calculate D2E/DX2 analytically  !
 ! D55   D(27,3,23,25)          68.6266         calculate D2E/DX2 analytically  !
 ! D56   D(1,3,27,7)            49.3786         calculate D2E/DX2 analytically  !
 ! D57   D(1,3,27,26)          -46.7297         calculate D2E/DX2 analytically  !
 ! D58   D(23,3,27,7)          157.2353         calculate D2E/DX2 analytically  !
 ! D59   D(23,3,27,26)          61.127          calculate D2E/DX2 analytically  !
 ! D60   D(1,4,20,21)          152.2433         calculate D2E/DX2 analytically  !
 ! D61   D(1,4,20,22)          -86.0024         calculate D2E/DX2 analytically  !
 ! D62   D(1,4,20,23)           31.8961         calculate D2E/DX2 analytically  !
 ! D63   D(1,5,11,8)           163.2743         calculate D2E/DX2 analytically  !
 ! D64   D(1,5,11,12)          -75.3706         calculate D2E/DX2 analytically  !
 ! D65   D(1,5,11,13)           42.4924         calculate D2E/DX2 analytically  !
 ! D66   D(28,6,8,9)          -146.4983         calculate D2E/DX2 analytically  !
 ! D67   D(28,6,8,10)           96.8195         calculate D2E/DX2 analytically  !
 ! D68   D(28,6,8,11)          -27.5285         calculate D2E/DX2 analytically  !
 ! D69   D(1,7,14,15)           93.9671         calculate D2E/DX2 analytically  !
 ! D70   D(1,7,14,16)         -146.6553         calculate D2E/DX2 analytically  !
 ! D71   D(1,7,14,17)          -25.6818         calculate D2E/DX2 analytically  !
 ! D72   D(27,7,14,15)         173.8715         calculate D2E/DX2 analytically  !
 ! D73   D(27,7,14,16)         -66.7509         calculate D2E/DX2 analytically  !
 ! D74   D(27,7,14,17)          54.2226         calculate D2E/DX2 analytically  !
 ! D75   D(1,7,27,3)           -49.229          calculate D2E/DX2 analytically  !
 ! D76   D(1,7,27,26)           46.1948         calculate D2E/DX2 analytically  !
 ! D77   D(14,7,27,3)         -157.8129         calculate D2E/DX2 analytically  !
 ! D78   D(14,7,27,26)         -62.389          calculate D2E/DX2 analytically  !
 ! D79   D(6,8,11,5)            79.7373         calculate D2E/DX2 analytically  !
 ! D80   D(6,8,11,12)          -43.854          calculate D2E/DX2 analytically  !
 ! D81   D(6,8,11,13)         -157.9428         calculate D2E/DX2 analytically  !
 ! D82   D(9,8,11,5)          -155.1673         calculate D2E/DX2 analytically  !
 ! D83   D(9,8,11,12)           81.2414         calculate D2E/DX2 analytically  !
 ! D84   D(9,8,11,13)          -32.8475         calculate D2E/DX2 analytically  !
 ! D85   D(10,8,11,5)          -49.9349         calculate D2E/DX2 analytically  !
 ! D86   D(10,8,11,12)        -173.5262         calculate D2E/DX2 analytically  !
 ! D87   D(10,8,11,13)          72.385          calculate D2E/DX2 analytically  !
 ! D88   D(7,14,17,2)           37.0425         calculate D2E/DX2 analytically  !
 ! D89   D(7,14,17,18)         157.5924         calculate D2E/DX2 analytically  !
 ! D90   D(7,14,17,19)         -81.8057         calculate D2E/DX2 analytically  !
 ! D91   D(15,14,17,2)         -83.7869         calculate D2E/DX2 analytically  !
 ! D92   D(15,14,17,18)         36.7629         calculate D2E/DX2 analytically  !
 ! D93   D(15,14,17,19)        157.3648         calculate D2E/DX2 analytically  !
 ! D94   D(16,14,17,2)         158.3631         calculate D2E/DX2 analytically  !
 ! D95   D(16,14,17,18)        -81.0871         calculate D2E/DX2 analytically  !
 ! D96   D(16,14,17,19)         39.5148         calculate D2E/DX2 analytically  !
 ! D97   D(2,17,19,26)         -41.7825         calculate D2E/DX2 analytically  !
 ! D98   D(14,17,19,26)         74.6145         calculate D2E/DX2 analytically  !
 ! D99   D(18,17,19,26)       -164.3532         calculate D2E/DX2 analytically  !
 ! D100  D(17,19,26,1)           2.143          calculate D2E/DX2 analytically  !
 ! D101  D(17,19,26,22)         52.4056         calculate D2E/DX2 analytically  !
 ! D102  D(17,19,26,27)        -79.5119         calculate D2E/DX2 analytically  !
 ! D103  D(4,20,22,26)          40.5339         calculate D2E/DX2 analytically  !
 ! D104  D(21,20,22,26)        163.0866         calculate D2E/DX2 analytically  !
 ! D105  D(23,20,22,26)        -75.9204         calculate D2E/DX2 analytically  !
 ! D106  D(4,20,23,3)          -37.7338         calculate D2E/DX2 analytically  !
 ! D107  D(4,20,23,24)          83.0327         calculate D2E/DX2 analytically  !
 ! D108  D(4,20,23,25)        -159.0265         calculate D2E/DX2 analytically  !
 ! D109  D(21,20,23,3)        -158.4074         calculate D2E/DX2 analytically  !
 ! D110  D(21,20,23,24)        -37.6409         calculate D2E/DX2 analytically  !
 ! D111  D(21,20,23,25)         80.2999         calculate D2E/DX2 analytically  !
 ! D112  D(22,20,23,3)          81.1203         calculate D2E/DX2 analytically  !
 ! D113  D(22,20,23,24)       -158.1133         calculate D2E/DX2 analytically  !
 ! D114  D(22,20,23,25)        -40.1725         calculate D2E/DX2 analytically  !
 ! D115  D(20,22,26,1)          -0.689          calculate D2E/DX2 analytically  !
 ! D116  D(20,22,26,19)        -51.0078         calculate D2E/DX2 analytically  !
 ! D117  D(20,22,26,27)         80.9494         calculate D2E/DX2 analytically  !
 ! D118  D(1,26,27,3)           29.2488         calculate D2E/DX2 analytically  !
 ! D119  D(1,26,27,7)          -29.0371         calculate D2E/DX2 analytically  !
 ! D120  D(19,26,27,3)         103.0975         calculate D2E/DX2 analytically  !
 ! D121  D(19,26,27,7)          44.8117         calculate D2E/DX2 analytically  !
 ! D122  D(22,26,27,3)         -44.4315         calculate D2E/DX2 analytically  !
 ! D123  D(22,26,27,7)        -102.7173         calculate D2E/DX2 analytically  !
 --------------------------------------------------------------------------------
 Trust Radius=3.00D-01 FncErr=1.00D-07 GrdErr=1.00D-06 EigMax=2.50D+02 EigMin=1.00D-04
 Number of steps in this run=    168 maximum allowed number of steps=    168.
 Search for a saddle point of order  1.
 GradGradGradGradGradGradGradGradGradGradGradGradGradGradGradGradGradGrad

                          Input orientation:                          
 ---------------------------------------------------------------------
 Center     Atomic      Atomic             Coordinates (Angstroms)
 Number     Number       Type             X           Y           Z
 ---------------------------------------------------------------------
      1         14           0        0.487158    0.004029    0.063804
      2          8           0        0.533056    1.242469   -1.185076
      3          8           0        0.912843   -1.196444    1.290735
      4          8           0        0.557606   -1.257838   -1.162615
      5          8           0       -1.212153   -0.015208    0.352443
      6          8           0       -4.407565    0.451551    0.496428
      7          8           0        0.915816    1.231856    1.262178
      8          6           0       -3.635807   -0.398771   -0.175294
      9          1           0       -4.093682   -0.731434   -1.187459
     10          1           0       -3.457477   -1.396147    0.342577
     11          6           0       -2.202399    0.035003   -0.630548
     12          1           0       -2.298253    1.058868   -1.037984
     13          1           0       -1.922637   -0.624207   -1.473623
     14          6           0        0.922328    2.501424    0.740683
     15          1           0       -0.053744    3.007000    0.898765
     16          1           0        1.699513    3.129206    1.225392
     17          6           0        1.193283    2.374220   -0.764851
     18          1           0        0.824345    3.271866   -1.303295
     19          1           0        2.278954    2.264382   -0.922241
     20          6           0        1.193324   -2.388080   -0.704326
     21          1           0        0.823079   -3.293632   -1.228990
     22          1           0        2.283338   -2.297088   -0.845239
     23          6           0        0.894210   -2.477062    0.798060
     24          1           0       -0.098184   -2.953136    0.947916
     25          1           0        1.645965   -3.113840    1.310306
     26          8           0        2.988413    0.008201   -0.287714
     27          1           0        3.054809    0.024645    0.667242
     28          1           0       -4.008824    1.136805    1.037753
 ---------------------------------------------------------------------
                    Distance matrix (angstroms):
                    1          2          3          4          5
     1  Si   0.000000
     2  O    1.759415   0.000000
     3  O    1.768531   3.496023   0.000000
     4  O    1.761072   2.500528   2.479695   0.000000
     5  O    1.723758   2.644139   2.606016   2.640374   0.000000
     6  O    4.934142   5.278517   5.626149   5.507028   3.232531
     7  O    1.768448   2.477028   2.428470   3.493782   2.628885
     8  C    4.149489   4.592684   4.845177   4.392893   2.509925
     9  H    4.805274   5.030209   5.605620   4.681047   3.344770
    10  H    4.195039   5.021989   4.476447   4.290178   2.636014
    11  C    2.777913   3.041084   3.861674   3.093891   1.396202
    12  H    3.175710   2.841066   4.562949   3.679482   2.065560
    13  H    2.926683   3.098091   4.001134   2.578724   2.051873
    14  C    2.623837   2.333463   3.738566   4.229375   3.322676
    15  H    3.163474   2.792901   4.330920   4.776178   3.282396
    16  H    3.547650   3.275783   4.397086   5.123737   4.373463
    17  C    2.608273   1.375990   4.129615   3.708658   3.569851
    18  H    3.558288   2.053601   5.167458   4.539731   4.206382
    19  H    3.048280   2.039987   4.329069   3.927703   4.359952
    20  C    2.609766   3.721285   2.340712   1.375359   3.540283
    21  H    3.557911   4.545575   3.279523   2.054103   4.170271
    22  H    3.057411   3.963261   2.766235   2.039343   4.342796
    23  C    2.619282   4.230623   1.372246   2.333250   3.270484
    24  H    3.141513   4.748812   2.055643   2.785397   3.197958
    25  H    3.552141   5.142269   2.052866   3.277897   4.322946
    26  O    2.525838   2.890926   2.872396   2.877000   4.249130
    27  H    2.637687   3.357591   2.543191   3.350994   4.278744
    28  H    4.737680   5.057747   5.452601   5.606087   3.101315
                    6          7          8          9         10
     6  O    0.000000
     7  O    5.434486   0.000000
     8  C    1.330364   5.044060   0.000000
     9  H    2.081694   5.911878   1.159652   0.000000
    10  H    2.083345   5.184376   1.137871   1.785388   0.000000
    11  C    2.511244   3.839028   1.565271   2.115308   2.137845
    12  H    2.678143   3.956123   2.158239   2.539899   3.045792
    13  H    3.348615   4.357338   2.161349   2.192447   2.500042
    14  C    5.715715   1.372517   5.479666   6.271320   5.876414
    15  H    5.064381   2.055055   5.058068   5.886367   5.593071
    16  H    6.708027   2.053161   6.547838   7.368005   6.917567
    17  C    6.054501   2.343252   5.599747   6.146193   6.088648
    18  H    6.210158   3.278972   5.885484   6.342462   6.544711
    19  H    7.071670   2.774156   6.529526   7.046683   6.921407
    20  C    6.393377   4.128933   5.249546   5.561504   4.869280
    21  H    6.660563   5.166678   5.419609   5.544468   4.938971
    22  H    7.356852   4.331832   6.252097   6.575315   5.931236
    23  C    6.064369   3.737907   5.078166   5.645225   4.506997
    24  H    5.510581   4.317536   4.505681   5.045770   3.751733
    25  H    7.072456   4.406870   6.121742   6.697629   5.471023
    26  O    7.450633   2.862718   6.637662   7.177233   6.627138
    27  H    7.476527   2.527172   6.756737   7.423779   6.673374
    28  H    0.960000   4.930667   1.992139   2.906731   2.683859
                   11         12         13         14         15
    11  C    0.000000
    12  H    1.106116   0.000000
    13  H    1.106165   1.778654   0.000000
    14  C    4.210395   3.951805   4.771430   0.000000
    15  H    3.973447   3.547398   4.722992   1.110547   0.000000
    16  H    5.314464   5.038978   5.873054   1.110437   1.787604
    17  C    4.125607   3.741066   4.381995   1.535002   2.173271
    18  H    4.482304   3.836453   4.770147   2.186556   2.385427
    19  H    5.013755   4.734711   5.128483   2.159152   3.051069
    20  C    4.172255   4.917712   3.662278   5.105755   5.764717
    21  H    4.537781   5.359427   3.837269   6.121449   6.707766
    22  H    5.060294   5.682479   4.569860   5.233853   6.052838
    23  C    4.235608   5.105456   4.065494   4.978896   5.566300
    24  H    3.980985   4.988013   3.823139   5.553073   5.960504
    25  H    5.337793   6.203452   5.165603   5.690282   6.365772
    26  O    5.202190   5.442026   5.091634   3.397421   4.433424
    27  H    5.415035   5.712503   5.457040   3.269144   4.314064
    28  H    2.694507   2.690875   3.709494   5.125104   4.377168
                   16         17         18         19         20
    16  H    0.000000
    17  C    2.187999   0.000000
    18  H    2.679651   1.109867   0.000000
    19  H    2.386629   1.102505   1.810004   0.000000
    20  C    5.866897   4.762685   5.703499   4.782414   0.000000
    21  H    6.931448   5.698861   6.565919   5.753711   1.110125
    22  H    5.837211   4.797479   5.775095   4.562122   1.102845
    23  C    5.679909   5.105592   6.121335   5.230511   1.534455
    24  H    6.348511   5.743011   6.683537   6.030818   2.171908
    25  H    6.243853   5.884726   6.948612   5.857492   2.188688
    26  O    3.700193   3.008022   4.045504   2.448736   3.022925
    27  H    3.433170   3.322149   4.404819   2.853915   3.341791
    28  H    6.048965   5.642915   5.779144   6.682002   6.520889
                   21         22         23         24         25
    21  H    0.000000
    22  H    1.809066   0.000000
    23  C    2.186499   2.159282   0.000000
    24  H    2.388217   3.052450   1.110833   0.000000
    25  H    2.675349   2.391590   1.110413   1.788633   0.000000
    26  O    4.059159   2.474333   3.426532   4.452345   3.755393
    27  H    4.425752   2.876319   3.308147   4.345955   3.499780
    28  H    6.936439   7.411382   6.095673   5.659399   7.079471
                   26         27         28
    26  O    0.000000
    27  H    0.957403   0.000000
    28  H    7.210543   7.160244   0.000000
 Stoichiometry    C6H14O7Si(2-)
 Framework group  C1[X(C6H14O7Si)]
 Deg. of freedom    78
 Full point group                 C1      NOp   1
 Largest Abelian subgroup         C1      NOp   1
 Largest concise Abelian subgroup C1      NOp   1
                         Standard orientation:                         
 ---------------------------------------------------------------------
 Center     Atomic      Atomic             Coordinates (Angstroms)
 Number     Number       Type             X           Y           Z
 ---------------------------------------------------------------------
      1         14           0        0.519947    0.006258    0.060628
      2          8           0        0.552063    1.238059   -1.195229
      3          8           0        0.958680   -1.177407    1.299238
      4          8           0        0.630858   -1.260940   -1.157273
      5          8           0       -1.181502   -0.048421    0.331596
      6          8           0       -4.387672    0.349223    0.439314
      7          8           0        0.909034    1.250169    1.255912
      8          6           0       -3.590498   -0.487953   -0.219106
      9          1           0       -4.030274   -0.836476   -1.233957
     10          1           0       -3.395967   -1.478139    0.306671
     11          6           0       -2.162145   -0.025632   -0.661983
     12          1           0       -2.275971    0.993486   -1.076633
     13          1           0       -1.859174   -0.683504   -1.498053
     14          6           0        0.893397    2.516495    0.726785
     15          1           0       -0.095080    3.001536    0.871568
     16          1           0        1.651541    3.163946    1.215758
     17          6           0        1.182983    2.386415   -0.775030
     18          1           0        0.800291    3.272609   -1.322764
     19          1           0        2.272395    2.299410   -0.920388
     20          6           0        1.286169   -2.374310   -0.685481
     21          1           0        0.941322   -3.290800   -1.208458
     22          1           0        2.375372   -2.260344   -0.815541
     23          6           0        0.973177   -2.460994    0.814210
     24          1           0       -0.010137   -2.957757    0.956580
     25          1           0        1.733166   -3.078174    1.338160
     26          8           0        3.024098    0.063035   -0.264737
     27          1           0        3.080007    0.086527    0.690743
     28          1           0       -4.009713    1.046192    0.980591
 ---------------------------------------------------------------------
 Rotational constants (GHZ):           0.8235928           0.4934962           0.3787820
 Standard basis: def2TZVPP (5D, 7F)
 There are   726 symmetry adapted cartesian basis functions of A   symmetry.
 There are   641 symmetry adapted basis functions of A   symmetry.
   641 basis functions,   970 primitive gaussians,   726 cartesian basis functions
    61 alpha electrons       61 beta electrons
       nuclear repulsion energy      1223.5056014007 Hartrees.
 NAtoms=   28 NActive=   28 NUniq=   28 SFac= 1.00D+00 NAtFMM=   60 NAOKFM=F Big=F
 Integral buffers will be    131072 words long.
 Raffenetti 2 integral format.
 Two-electron integral symmetry is turned on.
 Nuclear repulsion after empirical dispersion term =     1223.4875619315 Hartrees.
 One-electron integrals computed using PRISM.
   1 Symmetry operations used in ECPInt.
 ECPInt:  NShTT=   29161 NPrTT=   80163 LenC2=   26609 LenP2D=   55047.
 LDataN:  DoStor=T MaxTD1= 6 Len=  172
 NBasis=   641 RedAO= T EigKep=  2.41D-04  NBF=   641
 NBsUse=   641 1.00D-06 EigRej= -1.00D+00 NBFU=   641
 ExpMin= 7.01D-02 ExpMax= 4.48D+04 ExpMxC= 1.53D+03 IAcc=3 IRadAn=         5 AccDes= 0.00D+00
 Harris functional with IExCor= 4639 and IRadAn=       5 diagonalized for initial guess.
 HarFok:  IExCor= 4639 AccDes= 0.00D+00 IRadAn=         5 IDoV= 1 UseB2=F ITyADJ=14
 ICtDFT=  3500011 ScaDFX=  1.000000  1.000000  1.000000  1.000000
 FoFCou: FMM=F IPFlag=           0 FMFlag=      100000 FMFlg1=           0
         NFxFlg=           0 DoJE=T BraDBF=F KetDBF=T FulRan=T
         wScrn=  0.000000 ICntrl=       500 IOpCl=  0 I1Cent=   200000004 NGrid=           0
         NMat0=    1 NMatS0=      1 NMatT0=    0 NMatD0=    1 NMtDS0=    0 NMtDT0=    0
 Petite list used in FoFCou.
 Requested convergence on RMS density matrix=1.00D-08 within 128 cycles.
 Requested convergence on MAX density matrix=1.00D-06.
 Requested convergence on             energy=1.00D-06.
 No special actions if energy rises.
 Integral accuracy reduced to 1.0D-05 until final iterations.
 Initial convergence to 1.0D-05 achieved.  Increase integral accuracy.
 SCF Done:  E(RwB97XD) =  -1053.27599827     A.U. after   15 cycles
            NFock= 15  Conv=0.65D-08     -V/T= 2.0038
 DoSCS=F DFT=T ScalE2(SS,OS)=  1.000000  1.000000
 Range of M.O.s used for correlation:     1   641
 NBasis=   641 NAE=    61 NBE=    61 NFC=     0 NFV=     0
 NROrb=    641 NOA=    61 NOB=    61 NVA=   580 NVB=   580

 **** Warning!!: The largest alpha MO coefficient is  0.12035388D+02

   1 Symmetry operations used in ECPInt.
 ECPInt:  NShTT=   29161 NPrTT=   80163 LenC2=   26609 LenP2D=   55047.
 LDataN:  DoStor=T MaxTD1= 7 Len=  274
 Number of processors reduced to   2 by ecpmxn.
 Symmetrizing basis deriv contribution to polar:
 IMax=3 JMax=2 DiffMx= 0.00D+00
 G2DrvN: will do    29 centers at a time, making    1 passes.
 Calling FoFCou, ICntrl=  3107 FMM=F I1Cent=   0 AccDes= 0.00D+00.
 End of G2Drv F.D. properties file   721 does not exist.
 End of G2Drv F.D. properties file   722 does not exist.
 End of G2Drv F.D. properties file   788 does not exist.
          IDoAtm=1111111111111111111111111111
          Differentiating once with respect to electric field.
                with respect to dipole field.
          Differentiating once with respect to nuclear coordinates.
 CalDSu exits because no D1Ps are significant.
          There are    87 degrees of freedom in the 1st order CPHF.  IDoFFX=6 NUNeed=     3.
     84 vectors produced by pass  0 Test12= 4.07D-14 1.15D-09 XBig12= 5.54D+01 1.14D+00.
 AX will form    44 AO Fock derivatives at one time.
     84 vectors produced by pass  1 Test12= 4.07D-14 1.15D-09 XBig12= 5.10D+00 2.05D-01.
     84 vectors produced by pass  2 Test12= 4.07D-14 1.15D-09 XBig12= 1.08D-01 3.53D-02.
     84 vectors produced by pass  3 Test12= 4.07D-14 1.15D-09 XBig12= 1.56D-03 4.64D-03.
     84 vectors produced by pass  4 Test12= 4.07D-14 1.15D-09 XBig12= 1.70D-05 5.32D-04.
     84 vectors produced by pass  5 Test12= 4.07D-14 1.15D-09 XBig12= 1.28D-07 3.44D-05.
     84 vectors produced by pass  6 Test12= 4.07D-14 1.15D-09 XBig12= 9.83D-10 2.86D-06.
     43 vectors produced by pass  7 Test12= 4.07D-14 1.15D-09 XBig12= 7.00D-12 2.40D-07.
      4 vectors produced by pass  8 Test12= 4.07D-14 1.15D-09 XBig12= 4.87D-14 2.41D-08.
      3 vectors produced by pass  9 Test12= 4.07D-14 1.15D-09 XBig12= 1.11D-15 2.41D-09.
 InvSVY:  IOpt=1 It=  1 EMax= 5.33D-15
 Solved reduced A of dimension   638 with    87 vectors.
 Isotropic polarizability for W=    0.000000      138.39 Bohr**3.
 End of Minotr F.D. properties file   721 does not exist.
 End of Minotr F.D. properties file   722 does not exist.
 End of Minotr F.D. properties file   788 does not exist.

 **********************************************************************

            Population analysis using the SCF Density.

 **********************************************************************

 Orbital symmetries:
       Occupied  (A) (A) (A) (A) (A) (A) (A) (A) (A) (A) (A) (A)
                 (A) (A) (A) (A) (A) (A) (A) (A) (A) (A) (A) (A)
                 (A) (A) (A) (A) (A) (A) (A) (A) (A) (A) (A) (A)
                 (A) (A) (A) (A) (A) (A) (A) (A) (A) (A) (A) (A)
                 (A) (A) (A) (A) (A) (A) (A) (A) (A) (A) (A) (A)
                 (A)
       Virtual   (A) (A) (A) (A) (A) (A) (A) (A) (A) (A) (A) (A)
                 (A) (A) (A) (A) (A) (A) (A) (A) (A) (A) (A) (A)
                 (A) (A) (A) (A) (A) (A) (A) (A) (A) (A) (A) (A)
                 (A) (A) (A) (A) (A) (A) (A) (A) (A) (A) (A) (A)
                 (A) (A) (A) (A) (A) (A) (A) (A) (A) (A) (A) (A)
                 (A) (A) (A) (A) (A) (A) (A) (A) (A) (A) (A) (A)
                 (A) (A) (A) (A) (A) (A) (A) (A) (A) (A) (A) (A)
                 (A) (A) (A) (A) (A) (A) (A) (A) (A) (A) (A) (A)
                 (A) (A) (A) (A) (A) (A) (A) (A) (A) (A) (A) (A)
                 (A) (A) (A) (A) (A) (A) (A) (A) (A) (A) (A) (A)
                 (A) (A) (A) (A) (A) (A) (A) (A) (A) (A) (A) (A)
                 (A) (A) (A) (A) (A) (A) (A) (A) (A) (A) (A) (A)
                 (A) (A) (A) (A) (A) (A) (A) (A) (A) (A) (A) (A)
                 (A) (A) (A) (A) (A) (A) (A) (A) (A) (A) (A) (A)
                 (A) (A) (A) (A) (A) (A) (A) (A) (A) (A) (A) (A)
                 (A) (A) (A) (A) (A) (A) (A) (A) (A) (A) (A) (A)
                 (A) (A) (A) (A) (A) (A) (A) (A) (A) (A) (A) (A)
                 (A) (A) (A) (A) (A) (A) (A) (A) (A) (A) (A) (A)
                 (A) (A) (A) (A) (A) (A) (A) (A) (A) (A) (A) (A)
                 (A) (A) (A) (A) (A) (A) (A) (A) (A) (A) (A) (A)
                 (A) (A) (A) (A) (A) (A) (A) (A) (A) (A) (A) (A)
                 (A) (A) (A) (A) (A) (A) (A) (A) (A) (A) (A) (A)
                 (A) (A) (A) (A) (A) (A) (A) (A) (A) (A) (A) (A)
                 (A) (A) (A) (A) (A) (A) (A) (A) (A) (A) (A) (A)
                 (A) (A) (A) (A) (A) (A) (A) (A) (A) (A) (A) (A)
                 (A) (A) (A) (A) (A) (A) (A) (A) (A) (A) (A) (A)
                 (A) (A) (A) (A) (A) (A) (A) (A) (A) (A) (A) (A)
                 (A) (A) (A) (A) (A) (A) (A) (A) (A) (A) (A) (A)
                 (A) (A) (A) (A) (A) (A) (A) (A) (A) (A) (A) (A)
                 (A) (A) (A) (A) (A) (A) (A) (A) (A) (A) (A) (A)
                 (A) (A) (A) (A) (A) (A) (A) (A) (A) (A) (A) (A)
                 (A) (A) (A) (A) (A) (A) (A) (A) (A) (A) (A) (A)
                 (A) (A) (A) (A) (A) (A) (A) (A) (A) (A) (A) (A)
                 (A) (A) (A) (A) (A) (A) (A) (A) (A) (A) (A) (A)
                 (A) (A) (A) (A) (A) (A) (A) (A) (A) (A) (A) (A)
                 (A) (A) (A) (A) (A) (A) (A) (A) (A) (A) (A) (A)
                 (A) (A) (A) (A) (A) (A) (A) (A) (A) (A) (A) (A)
                 (A) (A) (A) (A) (A) (A) (A) (A) (A) (A) (A) (A)
                 (A) (A) (A) (A) (A) (A) (A) (A) (A) (A) (A) (A)
                 (A) (A) (A) (A) (A) (A) (A) (A) (A) (A) (A) (A)
                 (A) (A) (A) (A) (A) (A) (A) (A) (A) (A) (A) (A)
                 (A) (A) (A) (A) (A) (A) (A) (A) (A) (A) (A) (A)
                 (A) (A) (A) (A) (A) (A) (A) (A) (A) (A) (A) (A)
                 (A) (A) (A) (A) (A) (A) (A) (A) (A) (A) (A) (A)
                 (A) (A) (A) (A) (A) (A) (A) (A) (A) (A) (A) (A)
                 (A) (A) (A) (A) (A) (A) (A) (A) (A) (A) (A) (A)
                 (A) (A) (A) (A) (A) (A) (A) (A) (A) (A) (A) (A)
                 (A) (A) (A) (A) (A) (A) (A) (A) (A) (A) (A) (A)
                 (A) (A) (A) (A)
 The electronic state is 1-A.
 Alpha  occ. eigenvalues --  -65.99450 -19.04858 -18.92902 -18.90518 -18.90416
 Alpha  occ. eigenvalues --  -18.90415 -18.90376 -18.79251 -10.11295 -10.07098
 Alpha  occ. eigenvalues --  -10.03673 -10.03498 -10.02457 -10.02407  -5.10085
 Alpha  occ. eigenvalues --   -3.44782  -3.44610  -3.44501  -0.94315  -0.82942
 Alpha  occ. eigenvalues --   -0.80526  -0.79509  -0.76357  -0.74987  -0.61074
 Alpha  occ. eigenvalues --   -0.58913  -0.52405  -0.50344  -0.48346  -0.40415
 Alpha  occ. eigenvalues --   -0.38169  -0.37609  -0.34312  -0.31839  -0.30285
 Alpha  occ. eigenvalues --   -0.28396  -0.27545  -0.26916  -0.26650  -0.24644
 Alpha  occ. eigenvalues --   -0.24409  -0.21818  -0.20674  -0.19825  -0.18605
 Alpha  occ. eigenvalues --   -0.18257  -0.15960  -0.14820  -0.10644  -0.09505
 Alpha  occ. eigenvalues --   -0.09110  -0.08730  -0.08354  -0.07041  -0.06265
 Alpha  occ. eigenvalues --   -0.06033  -0.03197  -0.03025  -0.01522   0.04227
 Alpha  occ. eigenvalues --    0.05032
 Alpha virt. eigenvalues --    0.31454   0.33366   0.36614   0.36783   0.39132
 Alpha virt. eigenvalues --    0.40080   0.40920   0.41263   0.41993   0.42685
 Alpha virt. eigenvalues --    0.43263   0.44042   0.45051   0.46478   0.47182
 Alpha virt. eigenvalues --    0.48217   0.48484   0.49312   0.50954   0.51682
 Alpha virt. eigenvalues --    0.52390   0.53622   0.54385   0.54689   0.55256
 Alpha virt. eigenvalues --    0.56116   0.56566   0.57108   0.58778   0.61021
 Alpha virt. eigenvalues --    0.61867   0.62702   0.63769   0.64616   0.65970
 Alpha virt. eigenvalues --    0.66364   0.66612   0.67048   0.68069   0.69179
 Alpha virt. eigenvalues --    0.69202   0.69545   0.70652   0.71176   0.71542
 Alpha virt. eigenvalues --    0.73214   0.73736   0.74078   0.74250   0.75425
 Alpha virt. eigenvalues --    0.75611   0.76236   0.76684   0.77008   0.77486
 Alpha virt. eigenvalues --    0.78604   0.78977   0.79365   0.80235   0.80530
 Alpha virt. eigenvalues --    0.80769   0.81238   0.81946   0.82351   0.82942
 Alpha virt. eigenvalues --    0.83995   0.85478   0.85657   0.86657   0.87308
 Alpha virt. eigenvalues --    0.88120   0.89140   0.90294   0.90880   0.91777
 Alpha virt. eigenvalues --    0.94035   0.94581   0.95371   0.95951   0.97721
 Alpha virt. eigenvalues --    0.99040   0.99592   1.01332   1.02688   1.03999
 Alpha virt. eigenvalues --    1.04531   1.06703   1.07721   1.08155   1.08644
 Alpha virt. eigenvalues --    1.09838   1.10139   1.10820   1.12390   1.12641
 Alpha virt. eigenvalues --    1.13195   1.13547   1.15595   1.16519   1.17390
 Alpha virt. eigenvalues --    1.18745   1.19510   1.20352   1.21001   1.21550
 Alpha virt. eigenvalues --    1.22793   1.23406   1.25009   1.25333   1.26389
 Alpha virt. eigenvalues --    1.27385   1.27743   1.28331   1.30333   1.31849
 Alpha virt. eigenvalues --    1.32186   1.32684   1.33661   1.35161   1.35819
 Alpha virt. eigenvalues --    1.35909   1.36955   1.37534   1.39016   1.39108
 Alpha virt. eigenvalues --    1.40698   1.40811   1.42612   1.43412   1.44398
 Alpha virt. eigenvalues --    1.45457   1.46171   1.47007   1.47142   1.48027
 Alpha virt. eigenvalues --    1.48758   1.49497   1.50556   1.51151   1.51861
 Alpha virt. eigenvalues --    1.51966   1.54010   1.54694   1.56345   1.56964
 Alpha virt. eigenvalues --    1.58241   1.59353   1.60095   1.60315   1.61194
 Alpha virt. eigenvalues --    1.62153   1.63781   1.64674   1.65733   1.66466
 Alpha virt. eigenvalues --    1.66689   1.67444   1.69180   1.69481   1.70569
 Alpha virt. eigenvalues --    1.70790   1.71628   1.72069   1.73154   1.75134
 Alpha virt. eigenvalues --    1.75939   1.76186   1.78099   1.78486   1.79028
 Alpha virt. eigenvalues --    1.79443   1.80617   1.82234   1.83108   1.84101
 Alpha virt. eigenvalues --    1.84837   1.85592   1.87096   1.88235   1.90315
 Alpha virt. eigenvalues --    1.91449   1.92425   1.92918   1.94808   1.95677
 Alpha virt. eigenvalues --    1.97715   1.99593   2.01061   2.02948   2.04391
 Alpha virt. eigenvalues --    2.06486   2.06673   2.09881   2.10813   2.16308
 Alpha virt. eigenvalues --    2.16949   2.17548   2.18263   2.19602   2.23974
 Alpha virt. eigenvalues --    2.24750   2.26796   2.28861   2.29340   2.29763
 Alpha virt. eigenvalues --    2.30397   2.31074   2.33885   2.34764   2.36998
 Alpha virt. eigenvalues --    2.38559   2.40007   2.41543   2.41968   2.44159
 Alpha virt. eigenvalues --    2.45108   2.46529   2.47338   2.48920   2.49868
 Alpha virt. eigenvalues --    2.50411   2.52411   2.53212   2.54001   2.54594
 Alpha virt. eigenvalues --    2.55138   2.57917   2.58580   2.59332   2.62286
 Alpha virt. eigenvalues --    2.62838   2.65614   2.66975   2.68361   2.70027
 Alpha virt. eigenvalues --    2.70615   2.73457   2.75196   2.76001   2.78088
 Alpha virt. eigenvalues --    2.80753   2.82155   2.84856   2.85229   2.87202
 Alpha virt. eigenvalues --    2.88089   2.89059   2.90902   2.93334   2.95626
 Alpha virt. eigenvalues --    2.96008   2.98359   2.98986   2.99693   3.00759
 Alpha virt. eigenvalues --    3.01181   3.02091   3.03456   3.04346   3.04851
 Alpha virt. eigenvalues --    3.07228   3.11154   3.12076   3.13273   3.15150
 Alpha virt. eigenvalues --    3.17135   3.17622   3.19219   3.19718   3.20225
 Alpha virt. eigenvalues --    3.21480   3.22271   3.23416   3.23984   3.24709
 Alpha virt. eigenvalues --    3.25540   3.25602   3.29091   3.29923   3.30677
 Alpha virt. eigenvalues --    3.31034   3.32557   3.34008   3.34767   3.35579
 Alpha virt. eigenvalues --    3.36004   3.36878   3.37278   3.37820   3.39130
 Alpha virt. eigenvalues --    3.39909   3.40540   3.41582   3.43275   3.44081
 Alpha virt. eigenvalues --    3.46039   3.46519   3.47150   3.47612   3.49593
 Alpha virt. eigenvalues --    3.49763   3.51170   3.52400   3.52777   3.53182
 Alpha virt. eigenvalues --    3.54794   3.55684   3.57435   3.58069   3.59154
 Alpha virt. eigenvalues --    3.60332   3.60937   3.63033   3.63777   3.64524
 Alpha virt. eigenvalues --    3.66423   3.66707   3.69226   3.69890   3.70597
 Alpha virt. eigenvalues --    3.72896   3.73466   3.74890   3.75852   3.76921
 Alpha virt. eigenvalues --    3.78387   3.80020   3.81066   3.82627   3.83626
 Alpha virt. eigenvalues --    3.84109   3.85523   3.87219   3.87840   3.88517
 Alpha virt. eigenvalues --    3.89541   3.90084   3.92055   3.92270   3.92388
 Alpha virt. eigenvalues --    3.93849   3.95973   3.96949   3.97041   3.98052
 Alpha virt. eigenvalues --    4.01194   4.01628   4.02704   4.03125   4.04106
 Alpha virt. eigenvalues --    4.04903   4.05689   4.06854   4.07523   4.08260
 Alpha virt. eigenvalues --    4.09037   4.12004   4.12928   4.13465   4.13798
 Alpha virt. eigenvalues --    4.15504   4.15707   4.16512   4.19024   4.19875
 Alpha virt. eigenvalues --    4.21062   4.22214   4.23638   4.24532   4.26745
 Alpha virt. eigenvalues --    4.27588   4.29214   4.30552   4.31446   4.31538
 Alpha virt. eigenvalues --    4.33015   4.34003   4.35057   4.36098   4.36346
 Alpha virt. eigenvalues --    4.38252   4.39113   4.40003   4.42195   4.43443
 Alpha virt. eigenvalues --    4.46038   4.46527   4.48013   4.48508   4.49748
 Alpha virt. eigenvalues --    4.50441   4.51329   4.51653   4.53075   4.54863
 Alpha virt. eigenvalues --    4.56090   4.56201   4.57361   4.59146   4.59386
 Alpha virt. eigenvalues --    4.60206   4.61450   4.63453   4.64462   4.64901
 Alpha virt. eigenvalues --    4.66292   4.68094   4.69282   4.70953   4.72954
 Alpha virt. eigenvalues --    4.73534   4.73726   4.73977   4.77727   4.79793
 Alpha virt. eigenvalues --    4.81950   4.84136   4.87621   4.89373   4.93222
 Alpha virt. eigenvalues --    4.94738   4.95035   4.96216   4.96888   4.97082
 Alpha virt. eigenvalues --    5.00664   5.03521   5.04390   5.05963   5.06683
 Alpha virt. eigenvalues --    5.09718   5.10764   5.11467   5.12466   5.13936
 Alpha virt. eigenvalues --    5.14702   5.15045   5.17792   5.18190   5.18499
 Alpha virt. eigenvalues --    5.20216   5.22331   5.23204   5.24829   5.26590
 Alpha virt. eigenvalues --    5.29020   5.29613   5.30973   5.32325   5.33504
 Alpha virt. eigenvalues --    5.36482   5.38493   5.40257   5.42164   5.43603
 Alpha virt. eigenvalues --    5.45552   5.47333   5.48492   5.50381   5.50647
 Alpha virt. eigenvalues --    5.51994   5.53663   5.56742   5.57634   5.60392
 Alpha virt. eigenvalues --    5.61412   5.62782   5.66307   5.67104   5.67954
 Alpha virt. eigenvalues --    5.68360   5.69336   5.69900   5.72847   5.74296
 Alpha virt. eigenvalues --    5.74463   5.79059   5.80298   5.81082   5.81898
 Alpha virt. eigenvalues --    5.84347   5.85293   5.86165   5.86865   5.87169
 Alpha virt. eigenvalues --    5.88552   5.91611   5.92721   5.93160   5.93538
 Alpha virt. eigenvalues --    5.96792   5.96899   5.97531   5.98330   6.00529
 Alpha virt. eigenvalues --    6.00945   6.02825   6.04067   6.04597   6.08976
 Alpha virt. eigenvalues --    6.09229   6.13262   6.15846   6.22710   6.33872
 Alpha virt. eigenvalues --    6.38285   6.38539   6.39052   6.41740   6.43794
 Alpha virt. eigenvalues --    6.46190   6.48729   6.50738   6.52171   6.53979
 Alpha virt. eigenvalues --    6.55170   6.56676   6.58771   6.59511   6.64023
 Alpha virt. eigenvalues --    6.66101   6.72981   6.83205   6.94202   6.94427
 Alpha virt. eigenvalues --    6.94887   6.95626   6.98326   7.01633   7.02190
 Alpha virt. eigenvalues --    7.04968   7.07236   7.08728   7.12315   7.14048
 Alpha virt. eigenvalues --    7.14968   7.15789   7.18693   7.20114   7.20620
 Alpha virt. eigenvalues --    7.21410   7.21818   7.24037   7.30023   7.31469
 Alpha virt. eigenvalues --    7.34731   7.36180   7.41132   7.42484   7.44476
 Alpha virt. eigenvalues --    7.49107   7.52557   7.53471   7.53808   7.59970
 Alpha virt. eigenvalues --    7.64284   7.64776   7.67847   7.69791   7.78399
 Alpha virt. eigenvalues --    7.79210   7.83719   7.91288   7.95249   7.97590
 Alpha virt. eigenvalues --    8.02541  12.31269  23.55579  23.69152  23.70839
 Alpha virt. eigenvalues --   23.71682  23.81089  23.83137  44.20585  44.31529
 Alpha virt. eigenvalues --   44.53919  44.57376  44.59793  44.72920  44.77258
          Condensed to atoms (all electrons):
               1          2          3          4          5          6
     1  Si  11.569220   0.347754   0.361012   0.340334   0.379090   0.001063
     2  O    0.347754   8.076680   0.003741  -0.046469  -0.035006  -0.000010
     3  O    0.361012   0.003741   8.057118  -0.024101  -0.041328   0.000001
     4  O    0.340334  -0.046469  -0.024101   8.077333  -0.036855  -0.000001
     5  O    0.379090  -0.035006  -0.041328  -0.036855   8.053304   0.000485
     6  O    0.001063  -0.000010   0.000001  -0.000001   0.000485   7.900340
     7  O    0.366405  -0.027357  -0.047047   0.003460  -0.042385   0.000009
     8  C   -0.018301   0.002367   0.000356  -0.001317  -0.056259   0.304125
     9  H    0.002622   0.000044   0.000000  -0.000053   0.007783  -0.045675
    10  H    0.003258  -0.000025  -0.000449   0.000287   0.010946  -0.056781
    11  C   -0.073674  -0.003036  -0.002719  -0.009942   0.300756  -0.058535
    12  H   -0.003050   0.014832  -0.000564   0.000543  -0.055603   0.002285
    13  H   -0.003001  -0.000827   0.001188   0.024358  -0.057951   0.007069
    14  C   -0.026665  -0.126088   0.001478  -0.001538   0.003420  -0.000005
    15  H   -0.010745   0.017371   0.000275  -0.000051   0.005541  -0.000020
    16  H   -0.000279   0.007331   0.000128   0.000088  -0.000601   0.000000
    17  C   -0.073426   0.367556  -0.001488  -0.001767  -0.005118  -0.000014
    18  H   -0.004801  -0.047985  -0.000020  -0.000444  -0.000353   0.000001
    19  H    0.010116  -0.043408   0.000707   0.001855  -0.000720  -0.000000
    20  C   -0.071319  -0.000633  -0.104946   0.373021  -0.006687   0.000003
    21  H   -0.004349  -0.000428   0.007318  -0.048333  -0.000493   0.000001
    22  H    0.009740   0.001445   0.009374  -0.044984  -0.000573   0.000000
    23  C   -0.032795  -0.001926   0.369393  -0.127710   0.002850  -0.000006
    24  H   -0.010565  -0.000076  -0.071459   0.016526   0.006636  -0.000005
    25  H   -0.001091   0.000084  -0.042442   0.007087  -0.000696   0.000000
    26  O    0.187755  -0.025203  -0.025843  -0.026231   0.001160  -0.000000
    27  H   -0.093792   0.006007   0.011338   0.006005  -0.000359   0.000000
    28  H    0.001429   0.000012   0.000001   0.000007   0.007468   0.337797
               7          8          9         10         11         12
     1  Si   0.366405  -0.018301   0.002622   0.003258  -0.073674  -0.003050
     2  O   -0.027357   0.002367   0.000044  -0.000025  -0.003036   0.014832
     3  O   -0.047047   0.000356   0.000000  -0.000449  -0.002719  -0.000564
     4  O    0.003460  -0.001317  -0.000053   0.000287  -0.009942   0.000543
     5  O   -0.042385  -0.056259   0.007783   0.010946   0.300756  -0.055603
     6  O    0.000009   0.304125  -0.045675  -0.056781  -0.058535   0.002285
     7  O    8.058929  -0.000852   0.000007   0.000053  -0.003540   0.001336
     8  C   -0.000852   4.798532   0.319201   0.389100   0.321043  -0.072443
     9  H    0.000007   0.319201   0.812938  -0.070606  -0.028575  -0.000112
    10  H    0.000053   0.389100  -0.070606   0.757601  -0.066869   0.018915
    11  C   -0.003540   0.321043  -0.028575  -0.066869   4.863667   0.351865
    12  H    0.001336  -0.072443  -0.000112   0.018915   0.351865   0.781051
    13  H   -0.000675  -0.042536  -0.004722   0.000045   0.359482  -0.056218
    14  C    0.368523  -0.000536  -0.000024   0.000071   0.000841   0.000799
    15  H   -0.072946   0.000654   0.000004  -0.000025   0.000032   0.000218
    16  H   -0.042101  -0.000017   0.000000   0.000000  -0.000145   0.000087
    17  C   -0.105133   0.000498   0.000013  -0.000026   0.003601   0.000160
    18  H    0.006857  -0.000165   0.000004   0.000004   0.000098  -0.000293
    19  H    0.009341   0.000010   0.000001  -0.000000  -0.000238   0.000267
    20  C   -0.001609   0.000008  -0.000007   0.000202   0.003803  -0.000127
    21  H   -0.000010  -0.000092   0.000032  -0.000079   0.001263  -0.000062
    22  H    0.000674  -0.000028   0.000000   0.000008  -0.000428   0.000015
    23  C    0.001584   0.002097  -0.000075  -0.001639  -0.000130  -0.000507
    24  H    0.000277  -0.001541   0.000025   0.001825   0.001148   0.000245
    25  H    0.000136  -0.000040   0.000001  -0.000019   0.000130  -0.000005
    26  O   -0.026659   0.000020  -0.000000  -0.000000   0.001251   0.000065
    27  H    0.011246  -0.000007   0.000000  -0.000001  -0.000550  -0.000020
    28  H   -0.000019  -0.067837   0.012990   0.002137  -0.014705   0.003232
              13         14         15         16         17         18
     1  Si  -0.003001  -0.026665  -0.010745  -0.000279  -0.073426  -0.004801
     2  O   -0.000827  -0.126088   0.017371   0.007331   0.367556  -0.047985
     3  O    0.001188   0.001478   0.000275   0.000128  -0.001488  -0.000020
     4  O    0.024358  -0.001538  -0.000051   0.000088  -0.001767  -0.000444
     5  O   -0.057951   0.003420   0.005541  -0.000601  -0.005118  -0.000353
     6  O    0.007069  -0.000005  -0.000020   0.000000  -0.000014   0.000001
     7  O   -0.000675   0.368523  -0.072946  -0.042101  -0.105133   0.006857
     8  C   -0.042536  -0.000536   0.000654  -0.000017   0.000498  -0.000165
     9  H   -0.004722  -0.000024   0.000004   0.000000   0.000013   0.000004
    10  H    0.000045   0.000071  -0.000025   0.000000  -0.000026   0.000004
    11  C    0.359482   0.000841   0.000032  -0.000145   0.003601   0.000098
    12  H   -0.056218   0.000799   0.000218   0.000087   0.000160  -0.000293
    13  H    0.750675  -0.000473   0.000231  -0.000006   0.000202  -0.000007
    14  C   -0.000473   4.978673   0.345990   0.302713   0.041151   0.022228
    15  H    0.000231   0.345990   0.951876  -0.117127  -0.068004  -0.029277
    16  H   -0.000006   0.302713  -0.117127   0.874028   0.014983   0.014577
    17  C    0.000202   0.041151  -0.068004   0.014983   5.252916   0.229288
    18  H   -0.000007   0.022228  -0.029277   0.014577   0.229288   0.939434
    19  H   -0.000066  -0.027403   0.022652  -0.022218   0.270123  -0.079350
    20  C    0.002194   0.002811  -0.000182   0.000040  -0.007052   0.000137
    21  H   -0.001442  -0.000127  -0.000000   0.000001   0.000110  -0.000009
    22  H    0.000458  -0.001072   0.000001   0.000024   0.003454  -0.000020
    23  C   -0.000546  -0.003360   0.000143   0.000108   0.002677  -0.000134
    24  H    0.000519   0.000133  -0.000023   0.000002  -0.000191  -0.000000
    25  H   -0.000006   0.000117   0.000002  -0.000010   0.000034   0.000001
    26  O    0.000194   0.044801  -0.000152  -0.002287  -0.090641   0.002107
    27  H   -0.000032   0.002803   0.000439  -0.000174  -0.005464   0.000005
    28  H    0.001199  -0.000076   0.000190  -0.000001   0.000001   0.000005
              19         20         21         22         23         24
     1  Si   0.010116  -0.071319  -0.004349   0.009740  -0.032795  -0.010565
     2  O   -0.043408  -0.000633  -0.000428   0.001445  -0.001926  -0.000076
     3  O    0.000707  -0.104946   0.007318   0.009374   0.369393  -0.071459
     4  O    0.001855   0.373021  -0.048333  -0.044984  -0.127710   0.016526
     5  O   -0.000720  -0.006687  -0.000493  -0.000573   0.002850   0.006636
     6  O   -0.000000   0.000003   0.000001   0.000000  -0.000006  -0.000005
     7  O    0.009341  -0.001609  -0.000010   0.000674   0.001584   0.000277
     8  C    0.000010   0.000008  -0.000092  -0.000028   0.002097  -0.001541
     9  H    0.000001  -0.000007   0.000032   0.000000  -0.000075   0.000025
    10  H   -0.000000   0.000202  -0.000079   0.000008  -0.001639   0.001825
    11  C   -0.000238   0.003803   0.001263  -0.000428  -0.000130   0.001148
    12  H    0.000267  -0.000127  -0.000062   0.000015  -0.000507   0.000245
    13  H   -0.000066   0.002194  -0.001442   0.000458  -0.000546   0.000519
    14  C   -0.027403   0.002811  -0.000127  -0.001072  -0.003360   0.000133
    15  H    0.022652  -0.000182  -0.000000   0.000001   0.000143  -0.000023
    16  H   -0.022218   0.000040   0.000001   0.000024   0.000108   0.000002
    17  C    0.270123  -0.007052   0.000110   0.003454   0.002677  -0.000191
    18  H   -0.079350   0.000137  -0.000009  -0.000020  -0.000134  -0.000000
    19  H    0.800261   0.003359  -0.000016  -0.001519  -0.000957   0.000003
    20  C    0.003359   5.222371   0.231819   0.280259   0.044745  -0.067426
    21  H   -0.000016   0.231819   0.938389  -0.080213   0.021223  -0.027655
    22  H   -0.001519   0.280259  -0.080213   0.801871  -0.030813   0.021934
    23  C   -0.000957   0.044745   0.021223  -0.030813   4.981733   0.353808
    24  H    0.000003  -0.067426  -0.027655   0.021934   0.353808   0.931695
    25  H    0.000022   0.016328   0.013660  -0.022095   0.302064  -0.114812
    26  O    0.070872  -0.085036   0.001912   0.068210   0.041076  -0.000199
    27  H    0.000677  -0.005738   0.000054   0.000647   0.003057   0.000412
    28  H    0.000000   0.000003   0.000000   0.000000  -0.000023   0.000006
              25         26         27         28
     1  Si  -0.001091   0.187755  -0.093792   0.001429
     2  O    0.000084  -0.025203   0.006007   0.000012
     3  O   -0.042442  -0.025843   0.011338   0.000001
     4  O    0.007087  -0.026231   0.006005   0.000007
     5  O   -0.000696   0.001160  -0.000359   0.007468
     6  O    0.000000  -0.000000   0.000000   0.337797
     7  O    0.000136  -0.026659   0.011246  -0.000019
     8  C   -0.000040   0.000020  -0.000007  -0.067837
     9  H    0.000001  -0.000000   0.000000   0.012990
    10  H   -0.000019  -0.000000  -0.000001   0.002137
    11  C    0.000130   0.001251  -0.000550  -0.014705
    12  H   -0.000005   0.000065  -0.000020   0.003232
    13  H   -0.000006   0.000194  -0.000032   0.001199
    14  C    0.000117   0.044801   0.002803  -0.000076
    15  H    0.000002  -0.000152   0.000439   0.000190
    16  H   -0.000010  -0.002287  -0.000174  -0.000001
    17  C    0.000034  -0.090641  -0.005464   0.000001
    18  H    0.000001   0.002107   0.000005   0.000005
    19  H    0.000022   0.070872   0.000677   0.000000
    20  C    0.016328  -0.085036  -0.005738   0.000003
    21  H    0.013660   0.001912   0.000054   0.000000
    22  H   -0.022095   0.068210   0.000647   0.000000
    23  C    0.302064   0.041076   0.003057  -0.000023
    24  H   -0.114812  -0.000199   0.000412   0.000006
    25  H    0.873694  -0.001970  -0.000377   0.000000
    26  O   -0.001970   8.464406   0.257203  -0.000000
    27  H   -0.000377   0.257203   0.692633   0.000000
    28  H    0.000000  -0.000000   0.000000   0.525296
 Mulliken charges:
               1
     1  Si   0.848057
     2  O   -0.486747
     3  O   -0.461023
     4  O   -0.481109
     5  O   -0.438452
     6  O   -0.392126
     7  O   -0.458506
     8  C    0.123958
     9  H   -0.005818
    10  H    0.012066
    11  C    0.054108
    12  H    0.013091
    13  H    0.020695
    14  C    0.070812
    15  H   -0.047066
    16  H   -0.029146
    17  C    0.171557
    18  H   -0.051888
    19  H   -0.014370
    20  C    0.169660
    21  H   -0.052474
    22  H   -0.016368
    23  C    0.074063
    24  H   -0.041241
    25  H   -0.029796
    26  O   -0.856810
    27  H    0.113986
    28  H    0.190886
 Sum of Mulliken charges =  -2.00000
 Mulliken charges with hydrogens summed into heavy atoms:
               1
     1  Si   0.848057
     2  O   -0.486747
     3  O   -0.461023
     4  O   -0.481109
     5  O   -0.438452
     6  O   -0.201240
     7  O   -0.458506
     8  C    0.130206
    11  C    0.087895
    14  C   -0.005400
    17  C    0.105299
    20  C    0.100818
    23  C    0.003027
    26  O   -0.742824
 APT charges:
               1
     1  Si   2.660725
     2  O   -1.010383
     3  O   -1.009768
     4  O   -1.009379
     5  O   -1.113983
     6  O   -0.709939
     7  O   -1.012452
     8  C    0.564988
     9  H   -0.124948
    10  H   -0.106435
    11  C    0.562196
    12  H   -0.118899
    13  H   -0.048684
    14  C    0.614879
    15  H   -0.197271
    16  H   -0.171386
    17  C    0.529324
    18  H   -0.185177
    19  H   -0.058536
    20  C    0.529728
    21  H   -0.184612
    22  H   -0.059962
    23  C    0.609919
    24  H   -0.189075
    25  H   -0.172410
    26  O   -0.975404
    27  H    0.108713
    28  H    0.278232
 Sum of APT charges =  -2.00000
 APT charges with hydrogens summed into heavy atoms:
               1
     1  Si   2.660725
     2  O   -1.010383
     3  O   -1.009768
     4  O   -1.009379
     5  O   -1.113983
     6  O   -0.431708
     7  O   -1.012452
     8  C    0.333605
    11  C    0.394613
    14  C    0.246221
    17  C    0.285611
    20  C    0.285154
    23  C    0.248434
    26  O   -0.866691
 Electronic spatial extent (au):  <R**2>=           3239.7888
 Charge=             -2.0000 electrons
 Dipole moment (field-independent basis, Debye):
    X=             -8.6873    Y=              0.4149    Z=              0.8201  Tot=              8.7358
 Quadrupole moment (field-independent basis, Debye-Ang):
   XX=           -154.6564   YY=           -113.9761   ZZ=           -112.6495
   XY=             -2.7072   XZ=              3.4799   YZ=              1.8797
 Traceless Quadrupole moment (field-independent basis, Debye-Ang):
   XX=            -27.5624   YY=             13.1179   ZZ=             14.4445
   XY=             -2.7072   XZ=              3.4799   YZ=              1.8797
 Octapole moment (field-independent basis, Debye-Ang**2):
  XXX=             -8.5118  YYY=              3.8339  ZZZ=              3.6221  XYY=            -23.3524
  XXY=              7.5866  XXZ=             19.3381  XZZ=            -17.8898  YZZ=              2.2609
  YYZ=              2.9536  XYZ=             -6.2864
 Hexadecapole moment (field-independent basis, Debye-Ang**3):
 XXXX=          -3364.6915 YYYY=          -1683.0505 ZZZZ=           -543.6457 XXXY=            -40.3826
 XXXZ=             48.0809 YYYX=            -18.7801 YYYZ=              4.8602 ZZZX=            -21.4160
 ZZZY=              6.3701 XXYY=           -653.7383 XXZZ=           -480.7435 YYZZ=           -375.4469
 XXYZ=             27.0583 YYXZ=            -11.3668 ZZXY=            -10.2243
 N-N= 1.223487561931D+03 E-N=-4.971093510519D+03  KE= 1.049237134310D+03
  Exact polarizability:     143.070       0.117     155.261       3.443       0.698     116.833
 Approx polarizability:     138.025      -0.694     149.866       4.127       1.442     134.158
   1 Symmetry operations used in ECPInt.
 ECPInt:  NShTT=   29161 NPrTT=   80163 LenC2=   26609 LenP2D=   55047.
 LDataN:  DoStor=T MaxTD1= 8 Len=  415
 Calling FoFJK, ICntrl=    100127 FMM=F ISym2X=0 I1Cent= 0 IOpClX= 0 NMat=1 NMatS=1 NMatT=0.
 ***** Axes restored to original set *****
 -------------------------------------------------------------------
 Center     Atomic                   Forces (Hartrees/Bohr)
 Number     Number              X              Y              Z
 -------------------------------------------------------------------
      1       14           0.038463491   -0.000638076   -0.002820357
      2        8          -0.009230708   -0.005841711    0.001516219
      3        8          -0.006815364    0.004911017   -0.001544214
      4        8          -0.009613528    0.006608994    0.000929617
      5        8          -0.031211510    0.000881569   -0.002136843
      6        8          -0.051030600    0.038085536    0.027176942
      7        8          -0.007100024   -0.003959342   -0.001135370
      8        6           0.064558601   -0.068036627   -0.050342083
      9        1          -0.000789138    0.017180093    0.028719653
     10        1          -0.007593312    0.018947568   -0.000456977
     11        6           0.008528503    0.003359218    0.006518144
     12        1           0.001160877   -0.000376739   -0.001711557
     13        1          -0.002669516    0.002147998    0.002526377
     14        6           0.004188602    0.002345843   -0.000713456
     15        1          -0.001104481    0.001116915    0.000246046
     16        1          -0.002396893   -0.001721857   -0.000860296
     17        6           0.002804697    0.005019914    0.000971225
     18        1           0.000511294   -0.001542130    0.000579281
     19        1          -0.001980712   -0.000749997    0.000219558
     20        6           0.002894020   -0.005484564    0.001339315
     21        1           0.000537187    0.001651559    0.000606138
     22        1          -0.002020399    0.000851484    0.000059054
     23        6           0.003373949   -0.003195559   -0.000661136
     24        1          -0.000571330   -0.000732299    0.000261963
     25        1          -0.002252778    0.001820099   -0.000979952
     26        8          -0.007391932    0.000163866    0.000933207
     27        1           0.001252403   -0.000057328   -0.000224740
     28        1           0.015498602   -0.012755446   -0.009015757
 -------------------------------------------------------------------
 Cartesian Forces:  Max     0.068036627 RMS     0.015952401
 FormGI is forming the generalized inverse of G from B-inverse, IUseBI=4.

 GradGradGradGradGradGradGradGradGradGradGradGradGradGradGradGradGradGrad
 Berny optimization.
 Internal  Forces:  Max     0.045973311 RMS     0.005810925
 Search for a saddle point.
 Step number   1 out of a maximum of  168
 All quantities printed in internal units (Hartrees-Bohrs-Radians)
 Swapping is turned off.
 Second derivative matrix not updated -- analytic derivatives used.
 ITU=  0
     Eigenvalues ---   -0.00881  -0.00069   0.00096   0.00111   0.00120
     Eigenvalues ---    0.00165   0.00180   0.00197   0.00245   0.00274
     Eigenvalues ---    0.00281   0.00517   0.00712   0.00904   0.01201
     Eigenvalues ---    0.02143   0.02389   0.02594   0.03127   0.03957
     Eigenvalues ---    0.03977   0.04223   0.04332   0.04527   0.04665
     Eigenvalues ---    0.04805   0.04923   0.05015   0.05384   0.05701
     Eigenvalues ---    0.05825   0.06217   0.06664   0.06822   0.07585
     Eigenvalues ---    0.07840   0.08133   0.08155   0.09258   0.09486
     Eigenvalues ---    0.09640   0.10473   0.11003   0.11317   0.11889
     Eigenvalues ---    0.12764   0.13057   0.13840   0.14115   0.15196
     Eigenvalues ---    0.15931   0.17128   0.19498   0.21493   0.21537
     Eigenvalues ---    0.21716   0.23232   0.23874   0.24324   0.25368
     Eigenvalues ---    0.26182   0.26746   0.26915   0.27150   0.28200
     Eigenvalues ---    0.28226   0.28729   0.28795   0.29933   0.30335
     Eigenvalues ---    0.31884   0.32243   0.38074   0.39133   0.39680
     Eigenvalues ---    0.42992   0.53344   0.54746
 Eigenvectors required to have negative eigenvalues:
                          R6       D102      D117       R9        R15
   1                   -0.67079  -0.19107   0.18772  -0.18011  -0.17481
                         D120      D123       A65       A66       A56
   1                    0.15777  -0.15466   0.14084   0.13940  -0.13922
 RFO step:  Lambda0=5.269570503D-03 Lambda=-3.78389960D-02.
 Linear search not attempted -- option 19 set.
 Maximum step size (   0.300) exceeded in Quadratic search.
    -- Step size scaled by   0.435
 Iteration  1 RMS(Cart)=  0.10421035 RMS(Int)=  0.00683258
 Iteration  2 RMS(Cart)=  0.01077771 RMS(Int)=  0.00038056
 Iteration  3 RMS(Cart)=  0.00014379 RMS(Int)=  0.00036625
 Iteration  4 RMS(Cart)=  0.00000010 RMS(Int)=  0.00036625
 Variable       Old X    -DE/DX   Delta X   Delta X   Delta X     New X
                                 (Linear)    (Quad)   (Total)
    R1        3.32481  -0.00415   0.00000  -0.01233  -0.01260   3.31221
    R2        3.34204  -0.00435   0.00000  -0.02238  -0.02292   3.31912
    R3        3.32794  -0.00435   0.00000  -0.01551  -0.01573   3.31222
    R4        3.25743   0.00372   0.00000   0.00951   0.00951   3.26694
    R5        3.34188  -0.00405   0.00000  -0.01819  -0.01852   3.32337
    R6        4.77314  -0.00743   0.00000   0.16849   0.16853   4.94167
    R7        2.60024   0.00313   0.00000   0.00701   0.00678   2.60702
    R8        2.59317   0.00162   0.00000   0.00480   0.00459   2.59775
    R9        4.80593  -0.00042   0.00000   0.06088   0.06103   4.86696
   R10        2.59905   0.00333   0.00000   0.00811   0.00808   2.60713
   R11        2.63844  -0.02208   0.00000  -0.01619  -0.01619   2.62225
   R12        2.51402   0.04597   0.00000   0.05166   0.05166   2.56568
   R13        1.81414  -0.00775   0.00000  -0.00044  -0.00044   1.81370
   R14        2.59368   0.00138   0.00000   0.00322   0.00293   2.59661
   R15        4.77566  -0.00027   0.00000   0.05612   0.05637   4.83204
   R16        2.19142  -0.02968   0.00000  -0.05197  -0.05197   2.13946
   R17        2.15026  -0.01801   0.00000  -0.03064  -0.03064   2.11962
   R18        2.95793  -0.01822   0.00000  -0.04139  -0.04139   2.91654
   R19        2.09026   0.00018   0.00000  -0.00177  -0.00177   2.08848
   R20        2.09035  -0.00388   0.00000  -0.00221  -0.00221   2.08814
   R21        2.09863   0.00151   0.00000   0.00192   0.00192   2.10055
   R22        2.09842  -0.00303   0.00000  -0.00571  -0.00571   2.09271
   R23        2.90073  -0.00123   0.00000  -0.00366  -0.00390   2.89683
   R24        2.09735  -0.00170   0.00000  -0.00358  -0.00358   2.09377
   R25        2.08343  -0.00112   0.00000  -0.00256  -0.00268   2.08076
   R26        4.62744   0.00087   0.00000  -0.01251  -0.01201   4.61543
   R27        2.09783  -0.00181   0.00000  -0.00386  -0.00386   2.09397
   R28        2.08407  -0.00107   0.00000  -0.00250  -0.00239   2.08169
   R29        2.89970  -0.00144   0.00000  -0.00351  -0.00362   2.89608
   R30        4.67581   0.00103   0.00000  -0.05242  -0.05201   4.62380
   R31        2.09917   0.00086   0.00000  -0.00004  -0.00004   2.09913
   R32        2.09838  -0.00302   0.00000  -0.00564  -0.00564   2.09273
   R33        1.80923   0.00027   0.00000   0.00073   0.00139   1.81061
    A1        2.87233   0.00464   0.00000  -0.00754  -0.00770   2.86463
    A2        1.57979  -0.00084   0.00000  -0.00401  -0.00415   1.57564
    A3        1.72382  -0.00369   0.00000  -0.00437  -0.00428   1.71954
    A4        1.55677   0.00153   0.00000   0.00063   0.00067   1.55744
    A5        1.44468   0.00230   0.00000  -0.00310  -0.00319   1.44149
    A6        1.55792   0.00155   0.00000   0.00215   0.00221   1.56013
    A7        1.68458  -0.00086   0.00000   0.01211   0.01219   1.69677
[...]
 6983,-0.00101481,0.00018132,-0.02939550,0.01130808,-0.00236058,-0.0010
 4067,0.00057335,0.00061064,-0.00023893,0.00007802,0.00007574,-0.000049
 44,0.00001595,0.00021110,0.00014379,0.00008627,0.00002088,-0.00004667,
 0.00001207,-0.00002871,-0.00002850,-0.00003992,0.00003240,0.00026952,-
 0.00008780,0.00032174,0.00001365,0.00000159,-0.00002748,0.00017365,0.0
 0001003,-0.00000492,0.00004508,-0.00011182,-0.00003869,-0.00005361,0.0
 0002212,0.00000828,0.00004881,0.00002118,0.00003615,-0.00019026,-0.000
 24247,-0.00011466,-0.00004452,0.00010727,-0.00002470,0.00016552,-0.000
 11581,0.00009486,-0.25619501,-0.07327663,0.03756186,0.00067913,-0.0022
 4033,0.00015408,0.28887715,0.00488906,0.00399331,0.00255897,-0.0008058
 3,-0.00066472,-0.00001310,-0.00061779,0.00013506,-0.00033175,0.0373457
 3,-0.00324999,-0.00102544,0.00093230,-0.00098969,-0.00071386,0.0002243
 8,-0.00017209,-0.00010662,-0.00062900,-0.00022845,0.00005300,-0.000148
 86,-0.00004520,-0.00000072,0.00003089,-0.00001185,0.00001806,0.0000075
 8,0.00001345,-0.00001639,-0.00014840,0.00012487,-0.00027726,0.00003810
 ,0.00001332,0.00005935,-0.00023266,-0.00005739,-0.00003068,0.00015815,
 -0.00009566,-0.00011131,-0.00009157,0.00005584,0.00004498,-0.00000080,
 -0.00008003,-0.00003059,0.00026676,0.00021506,0.00007174,-0.00015377,0
 .00002477,-0.00002282,0.00019192,-0.00038901,0.00015877,-0.08641928,-0
 .07466479,0.00971783,-0.02054677,-0.00726371,0.00311827,0.06896156,0.0
 8135544,0.00085923,-0.00018427,-0.00107463,-0.00026926,-0.00008592,-0.
 00017236,-0.00183640,-0.00130808,0.00230081,-0.01288638,0.00124408,0.0
 0655762,-0.00033597,0.00000921,0.00031349,-0.00005672,-0.00001596,0.00
 001989,-0.00020402,-0.00014923,0.00010978,0.00004141,0.00006742,-0.000
 00520,-0.00000699,-0.00000648,0.00000257,-0.00002390,-0.00002662,0.000
 01497,0.00005363,-0.00003450,0.00002235,0.00001108,-0.00000685,0.00001
 136,0.00003665,0.00002018,-0.00001885,0.00007180,-0.00006135,-0.000060
 42,-0.00004117,0.00001405,0.00002321,0.00001994,-0.00002328,-0.0000071
 1,0.00009048,0.00004421,-0.00002407,-0.00008774,0.00004567,-0.00002234
 ,0.00011638,-0.00016966,0.00009793,0.03203416,0.00853420,-0.06144949,-
 0.01617872,-0.00800769,0.00268465,-0.03504785,-0.01836998,0.06509993,-
 0.00147225,0.01144180,-0.00528530,-0.00031342,0.00045470,0.00034070,-0
 .08152421,0.03948483,0.00720870,-0.00317953,0.02158400,-0.02592489,-0.
 00116153,-0.00143276,-0.00031572,0.00012736,-0.00025849,-0.00003472,0.
 00085930,-0.00194717,-0.00009872,-0.00002731,0.00027653,-0.00010860,0.
 00001898,-0.00005929,0.00007829,-0.00012821,-0.00010823,0.00007543,-0.
 00057312,0.00037462,-0.00048862,0.00008149,-0.00019284,0.00009832,0.00
 004379,0.00009363,-0.00013834,0.00108839,0.00027030,-0.00024840,0.0000
 4400,-0.00035711,0.00013695,-0.00007214,-0.00001050,-0.00004178,-0.000
 01840,0.00014907,0.00000749,-0.00004599,0.00003007,0.00003972,0.000053
 49,-0.00013944,0.00006959,-0.08259193,-0.01248944,0.03277282,-0.000255
 05,-0.00239253,-0.00777919,-0.00348963,-0.00434670,0.03115023,0.560241
 49,0.01642148,-0.03951087,0.02583230,-0.00019636,-0.00000336,-0.001570
 25,0.03605063,-0.22708466,-0.04443440,0.01010575,-0.02709563,0.0173085
 2,-0.00696343,0.00119895,-0.00453660,-0.00075732,-0.00033739,-0.000276
 21,-0.00061866,0.00368677,0.00031100,0.00000735,0.00065404,-0.00021594
 ,-0.00032305,0.00001438,-0.00004124,-0.00015340,-0.00028013,0.00018768
 ,0.00132905,0.00156931,0.00240361,-0.00023841,0.00007947,-0.00058538,-
 0.00027159,-0.00058003,-0.00067899,0.00038895,-0.00232727,0.00036983,-
 0.00050499,0.00058559,-0.00006939,0.00031412,0.00050042,0.00005301,-0.
 00000246,-0.00023060,0.00005384,-0.00009066,0.00030577,-0.00033897,0.0
 0012943,-0.00012514,0.00008145,-0.01410063,-0.06579988,0.00694591,0.00
 376832,0.00301521,-0.02888030,-0.00235940,-0.00117951,0.01531117,-0.01
 564233,0.53120046,-0.00046499,0.00469621,0.01207124,0.00020349,-0.0007
 8053,-0.00071712,0.01766257,-0.07116891,-0.10416007,-0.01537790,0.0169
 9591,-0.03273838,-0.00188862,0.00022151,-0.00257476,-0.00011077,-0.000
 07089,-0.00011331,-0.00023924,0.00529932,-0.00022060,-0.00011226,0.000
 04364,-0.00009401,-0.00010880,0.00002566,-0.00002167,0.00000576,-0.000
 03097,0.00001783,0.00014520,0.00050397,0.00082129,-0.00008166,0.000067
 72,-0.00020182,-0.00017279,-0.00019623,-0.00013176,-0.00021992,-0.0004
 2425,0.00140649,-0.00015706,0.00041039,-0.00011784,0.00009775,0.000417
 64,-0.00006897,0.00006143,-0.00016432,0.00023832,-0.00000869,0.0000106
 2,-0.00009253,-0.00005978,0.00008621,-0.00005809,0.02248588,0.02378946
 ,-0.16386153,0.00610943,0.00293889,-0.00895208,0.00163739,0.00231040,-
 0.00724514,0.03404291,-0.04522120,0.46963828,-0.00213913,0.00308961,-0
 .00226899,0.00017054,-0.00026939,0.00014035,0.01614924,-0.00312549,-0.
 00407023,0.00243933,-0.00117021,0.00083588,0.00160428,-0.00020173,0.00
 056516,0.00017991,0.00013598,0.00003943,0.00014927,-0.00078740,0.00002
 043,-0.00003310,-0.00022900,0.00004669,0.00005925,0.00000855,-0.000006
 07,0.00007794,0.00009197,-0.00006632,-0.00033629,-0.00035687,-0.000445
 19,0.00001097,0.00004592,0.00009447,0.00001887,0.00010240,0.00017703,-
 0.00007377,0.00038222,-0.00009210,0.00011986,-0.00012178,0.00000635,-0
 .00004553,-0.00007521,-0.00002010,0.00002994,0.00008548,-0.00000095,0.
 00003960,-0.00009382,0.00005596,-0.00006022,0.00007407,-0.00003723,-0.
 00869199,-0.00297039,0.00004669,0.00070659,0.00128870,0.00111706,0.001
 36108,0.00061798,0.00257107,-0.18747542,-0.09120773,0.02717627,0.19860
 864,-0.00646477,0.00342033,-0.00761988,0.00027569,-0.00008238,0.000429
 06,-0.01595951,-0.04662892,-0.00184787,0.00111400,0.00129491,0.0009452
 3,0.00182495,0.00055578,0.00051769,0.00014756,0.00022130,0.00007643,0.
 00072697,-0.00311883,0.00019035,-0.00002039,-0.00029825,0.00006361,0.0
 0005932,0.00002309,-0.00001634,0.00009610,0.00012618,-0.00007642,-0.00
 014645,-0.00038306,-0.00036865,-0.00002786,0.00005204,0.00003681,0.000
 03257,0.00009948,0.00021574,0.00025702,0.00073450,-0.00044813,0.000212
 07,-0.00043368,0.00008187,-0.00009953,-0.00018707,-0.00002642,0.000025
 89,0.00007122,-0.00012864,0.00003717,-0.00011290,0.00011705,-0.0000417
 8,0.00006842,-0.00002018,-0.00470565,-0.00138217,-0.00074309,0.0004815
 0,0.00152482,0.00053654,0.00002133,0.00088676,0.00101345,-0.09152030,-
 0.10750857,0.02504566,0.10887540,0.14314511,-0.00064130,0.00070564,-0.
 00185017,-0.00006879,0.00003679,0.00010766,-0.00804163,-0.01327979,0.0
 0666539,-0.00214383,-0.00109198,0.00215726,0.00001230,-0.00010339,0.00
 012269,0.00000464,-0.00002640,-0.00002017,0.00002708,-0.00056690,0.000
 10185,0.00000755,0.00002991,0.00001311,0.00000502,-0.00000406,0.000002
 80,-0.00001108,-0.00001016,0.00001199,0.00001417,0.00008857,-0.0000017
 5,0.00001000,-0.00002781,0.00000529,0.00002141,-0.00001561,-0.00003426
 ,0.00012015,0.00006044,-0.00010727,0.00000941,-0.00006292,0.00002903,-
 0.00000532,-0.00002993,-0.00000136,0.00001796,-0.00001979,-0.00003942,
 -0.00001343,0.00000783,0.00000872,0.00001744,-0.00004212,0.00002211,0.
 03110597,0.01680840,-0.00631879,-0.00037396,-0.00058111,0.00147457,-0.
 00002555,0.00075928,-0.00646450,0.02399082,0.02177479,-0.05749634,-0.0
 3067058,-0.01760847,0.05773416,0.00007945,-0.00345593,0.00339734,0.000
 10824,0.00040187,-0.00016739,-0.00096072,0.01544382,0.00112122,0.00181
 771,-0.00074122,0.00069335,-0.00085508,0.00044381,-0.00052691,-0.00019
 462,0.00010477,0.00006188,0.00006628,0.00114938,-0.00005127,0.00003577
 ,-0.00003864,-0.00004299,-0.00006422,0.00002949,-0.00003546,0.00001771
 ,-0.00000876,0.00000642,0.00022616,-0.00003784,0.00037351,-0.00004735,
 0.00007479,-0.00008535,0.00000882,-0.00003883,0.00001225,-0.00001625,-
 0.00039229,0.00016794,-0.00007665,0.00011487,-0.00001571,0.00008272,0.
 00014674,0.00003373,-0.00010101,-0.00018404,-0.00003089,-0.00001167,0.
 00008722,-0.00005787,0.00004687,0.00002149,0.00001849,0.00315321,-0.00
 343177,0.00337034,-0.00002462,0.00049756,-0.00066600,0.00113538,-0.000
 02829,-0.00028931,-0.19943101,0.06178072,-0.09072435,-0.02260472,0.005
 56170,-0.01344444,0.21689517,0.00069543,0.00297120,-0.00574477,-0.0001
 9595,-0.00028716,0.00031394,0.02993655,-0.03308177,0.01144128,0.000390
 57,0.00079576,0.00155733,0.00203383,-0.00032665,0.00119478,0.00018986,
 0.00000627,0.00001338,-0.00029408,-0.00207564,0.00016455,0.00002943,-0
 .00008907,0.00009923,0.00008800,-0.00001189,0.00000994,0.00002135,0.00
 004965,-0.00003436,-0.00014825,-0.00031741,-0.00055093,0.00004784,-0.0
 0002904,0.00012256,0.00003618,0.00010024,0.00010202,-0.00006367,0.0004
 2951,-0.00040230,0.00008462,-0.00014756,0.00003776,-0.00009085,-0.0002
 3359,-0.00001052,0.00012208,0.00019248,-0.00002623,-0.00002447,-0.0000
 6930,0.00006401,0.00000351,-0.00009040,0.00002403,0.00306789,0.0000393
 8,0.00307417,0.00011357,-0.00029768,0.00115655,-0.00005139,0.00014874,
 0.00024279,0.05592752,-0.06954677,0.03712925,-0.01369136,0.00797415,-0
 .00750598,-0.07754913,0.09337856,0.00034156,-0.00239740,-0.00332892,0.
 00015842,0.00087007,0.00018747,0.01248880,-0.00923089,0.00993333,-0.00
 036294,0.00479388,-0.00676241,-0.00045384,0.00029531,0.00037465,-0.000
 12987,0.00004704,0.00006033,0.00001231,-0.00007205,0.00018168,0.000065
 38,0.00003626,0.00000137,-0.00002094,0.00000592,-0.00001402,-0.0000234
 3,-0.00002327,0.00002376,0.00013353,-0.00008326,0.00005979,0.00002945,
 -0.00001984,-0.00000140,0.00007877,0.00003529,0.00000117,-0.00003256,-
 0.00004434,-0.00006295,-0.00001679,0.00001501,-0.00000544,0.00002501,0
 .00001244,0.00005915,-0.00022092,-0.00023126,-0.00007631,0.00002435,0.
 00009388,-0.00000383,0.00002666,0.00005064,-0.00000350,-0.02674747,0.0
 1108014,-0.00747416,0.00039064,-0.00128144,-0.00104407,0.00023742,0.00
 012968,0.00132700,-0.08818241,0.03925181,-0.10384953,0.00454527,-0.000
 89701,0.00326922,0.09705142,-0.04219766,0.10685753,0.02952999,0.003285
 12,-0.00418290,-0.00437316,0.00517367,-0.00203180,-0.00428484,-0.00606
 365,0.00470613,-0.00277234,-0.00567608,-0.00184047,-0.00264846,-0.0002
 0578,-0.00037591,-0.00063893,0.00009840,0.00014061,-0.00488910,0.00438
 859,0.00420793,0.00023319,0.00007801,0.00002991,-0.00018329,0.00005714
 ,-0.00012287,-0.00007574,-0.00011822,0.00009031,0.00076735,0.00007525,
 0.00079562,0.00013444,0.00010924,-0.00007070,0.00003283,-0.00016863,-0
 .00013111,0.00001675,-0.00392001,0.00002291,-0.00040439,0.00093447,0.0
 0007630,0.00062890,0.00079976,0.00060827,-0.00140954,-0.00105140,-0.00
 198662,-0.00131304,0.00117258,-0.00041999,-0.00202951,-0.00097928,0.00
 080493,-0.00183193,0.00113705,-0.00179718,-0.00090719,-0.00123926,-0.0
 0036246,-0.00187138,0.00035848,0.00048669,-0.00099155,0.00436031,0.000
 23948,-0.00014660,-0.00106697,0.00001825,0.00081793,-0.00082026,0.0006
 2482,0.02021616,0.00326121,-0.01928091,-0.00018145,0.00308900,0.006326
 68,-0.00001485,-0.00482135,0.00287673,0.00189555,-0.00449969,0.0051946
 6,-0.00022399,-0.00036068,0.00223376,0.00002556,-0.00010698,0.00051212
 ,0.00016484,0.00351385,0.00400194,-0.00116265,0.00002854,-0.00020445,-
 0.00012352,-0.00001383,0.00002228,0.00000501,0.00008800,0.00011447,-0.
 00004774,0.00006115,-0.00042103,0.00010435,-0.00023110,0.00003408,-0.0
 0021005,0.00025960,0.00019629,0.00014775,-0.00157887,-0.00047036,0.001
 56774,0.00076720,0.00000514,-0.00065250,-0.00016430,0.00067271,0.00029
 504,-0.00285124,-0.00584467,0.00118365,0.00266376,-0.00068695,0.000153
 25,0.00081118,0.00199307,-0.00257877,0.00342285,-0.00520747,-0.0017623
 4,-0.00270537,-0.00132830,-0.00007948,-0.00117044,0.00146228,0.0030022
 5,0.00180104,0.00025166,-0.00156168,-0.00078056,-0.00019505,0.00061087
 ,0.00016460,0.00073761,-0.00035157,0.00284414,0.01149271,-0.00519877,-
 0.00033978,-0.00733995,-0.00106255,0.00078101,0.00189955,0.00251569,0.
 00193618,0.00043921,-0.00096573,-0.00060388,0.00179525,0.00035474,0.00
 002994,0.00084561,-0.00000975,0.00006056,0.00012505,0.00266798,-0.0014
 4204,0.00047976,0.00004924,-0.00004446,-0.00002194,0.00003651,-0.00000
 509,0.00001500,-0.00002624,-0.00000552,0.00001960,-0.00009431,-0.00000
 292,-0.00030039,0.00007319,-0.00005583,0.00008602,0.00007261,0.0000708
 1,0.00005850,-0.00136441,0.00173990,-0.00102719,0.00013326,-0.00032160
 ,0.00043284,-0.00006689,0.00021981,0.00024356,-0.00073711,0.00055337,0
 .00032697,-0.00003890,0.00005684,0.00018825,0.00067308,-0.00144688,-0.
 00175385,-0.00039279,-0.00103979,0.00007535,-0.00017975,-0.00014092,0.
 00022628,0.00043258,0.00169870,-0.00150989,-0.00110428,-0.00197395,-0.
 00107438,0.00012244,0.00036778,0.00047310,-0.00001771,-0.00025955,0.00
 026928,-0.09918302,-0.01701283,0.52013388,-0.00799585,-0.00064679,-0.0
 0405111,-0.00010880,-0.00020994,0.00085550,0.00084215,0.00172715,0.000
 12342,-0.00019245,0.00024917,0.00079202,0.00070323,0.00002985,0.000420
 45,0.00013090,-0.00001012,0.00000230,0.00105428,-0.00139520,0.00018497
 ,-0.00002916,-0.00003208,-0.00000045,0.00004485,-0.00001154,0.00002913
 ,0.00000438,0.00002427,-0.00000983,-0.00020482,-0.00000726,-0.00027612
 ,0.00000873,-0.00003468,0.00005183,0.00002499,0.00005244,0.00005124,-0
 .00015352,0.00192990,-0.00035293,0.00016461,-0.00044465,0.00009229,-0.
 00019697,-0.00030930,-0.00010547,-0.00034946,0.00065678,-0.00011518,0.
 00005657,-0.00010352,0.00015844,0.00016302,-0.00025007,-0.00045647,-0.
 00013527,-0.00063471,-0.00013854,0.00001477,0.00010072,0.00015113,0.00
 007094,0.00023967,-0.00031691,0.00028640,-0.00211246,-0.00033703,0.000
 07642,0.00049999,0.00006485,-0.00028001,0.00034912,-0.00012654,-0.0222
 0820,-0.00346780,0.10337491,0.02835693,-0.00081981,0.00487955,-0.00022
 818,-0.00032436,-0.00070575,-0.00030278,0.00180347,-0.00052056,0.00050
 572,0.00038917,-0.00061049,0.00042857,0.00008514,-0.00046598,0.0000155
 6,0.00001754,-0.00009563,-0.00003616,-0.00156020,-0.00085689,-0.000475
 34,0.00000313,0.00005298,0.00002918,0.00000382,-0.00000753,-0.00000304
 ,-0.00001475,-0.00002289,0.00000670,-0.00001543,0.00000119,-0.00002433
 ,0.00002967,-0.00000709,0.00003693,-0.00003546,-0.00002403,-0.00003407
 ,0.00111141,-0.00073030,0.00029008,-0.00022080,0.00008666,-0.00008961,
 0.00002527,-0.00027084,-0.00013271,0.00091683,-0.00024203,-0.00016671,
 -0.00020674,-0.00000188,-0.00010907,-0.00068150,0.00036685,0.00111299,
 -0.00084838,-0.00046341,0.00004782,0.00019252,0.00003298,0.00012816,0.
 00067711,0.00053154,-0.00110066,-0.00115023,-0.00116030,-0.00030710,0.
 00025898,0.00016630,0.00009120,-0.00000938,-0.00031205,0.00015729,-0.0
 0341003,-0.00412621,0.01718214,0.00377156,0.00442960,-0.00330815,-0.00
 008330,-0.00235450,-0.00014689,0.00003345,0.00069321,0.00221379,0.0015
 0754,-0.00045814,-0.00008485,-0.00004332,0.00067162,0.00026130,-0.0000
 0670,0.00030459,0.00003978,0.00001112,0.00003299,0.00206690,-0.0010454
 8,-0.00036909,0.,-0.00001701,-0.00001265,0.00002460,-0.00000561,0.0000
 1115,-0.00000527,0.00000443,0.00000192,-0.00006311,0.00000389,-0.00012
 557,0.00002135,-0.00002574,0.00003432,0.00002057,0.00003178,0.00002390
 ,-0.00035144,0.00081139,-0.00040724,0.00007426,-0.00013336,0.00012802,
 -0.00007287,0.00002217,0.00005290,-0.00004132,0.00017417,-0.00014859,0
 .00002318,-0.00003522,0.00010016,-0.00004897,-0.00024821,-0.00046184,0
 .00001280,-0.00019697,-0.00017196,0.00001232,0.00003099,0.00010876,-0.
 00004368,0.00027836,-0.00050767,-0.00028376,-0.00095239,-0.00039595,0.
 00006808,0.00014482,0.00012462,-0.00008793,-0.00006640,0.00007070,0.09
 983783,0.01684012,-0.51502740,-0.10008249,-0.01704166,0.51809795,-0.00
 951497,-0.00020981,0.00131671,0.00102089,0.00102198,-0.00096047,0.0012
 6971,-0.00118716,0.00038973,0.00157923,-0.00142899,-0.00105529,0.00509
 986,-0.00690580,-0.00435969,-0.41022170,-0.00582366,-0.15977982,0.0018
 0554,0.00115670,-0.00008359,-0.00003093,-0.00889518,-0.00992354,0.0002
 0479,0.00075519,0.00320099,-0.00011020,0.00204389,0.00025574,0.0041266
 5,0.00588669,0.00958262,-0.00036564,0.00034324,-0.00101029,-0.00170616
 ,-0.00116657,-0.00199276,-0.00035266,-0.00115369,0.00042409,-0.0001527
 1,-0.00004394,0.00000086,0.00028495,0.00023557,0.00007751,-0.00023851,
 -0.00062142,-0.00005843,-0.00003156,0.00028948,-0.00016119,0.00009688,
 0.00011047,-0.00001946,-0.00036848,0.00057353,-0.00031179,0.00003958,-
 0.00027921,-0.00010003,0.00014882,-0.00009286,0.00003860,-0.00009398,0
 .00088679,0.00019628,-0.00019493,-0.00019600,-0.00000710,0.00017649,-0
 .00020796,0.00008388,0.00060163,-0.00002392,-0.00006402,-0.00014867,0.
 00001144,-0.00005602,0.40707607,0.00656304,0.00324392,0.00037670,-0.00
 069451,-0.00173063,0.00021563,-0.00090052,0.00008134,-0.00019648,-0.00
 135649,0.00071310,0.00055949,-0.00785477,-0.00013547,0.00463212,0.0238
 8013,-0.03399830,-0.00722160,-0.00045986,-0.00199739,-0.00043035,-0.03
 268434,-0.00732890,-0.02292548,0.00061707,-0.00318272,-0.00156030,-0.0
 0076093,-0.00240827,-0.00115626,-0.00156796,-0.00016334,-0.00722262,0.
 00029833,-0.00030227,0.00094283,0.00002171,0.00030555,0.00079920,-0.00
 128743,0.00176165,-0.00018499,0.00079746,-0.00079660,-0.00000282,0.000
 25793,-0.00024279,-0.00007899,0.00036112,0.00044885,0.00046735,-0.0000
 3800,-0.00019206,0.00007217,-0.00011213,-0.00004932,-0.00019222,0.0001
 4908,-0.00035749,0.00022538,-0.00002822,0.00011762,0.00003358,-0.00008
 500,0.00013165,0.00000184,0.00015925,-0.00029193,-0.00006635,0.0000236
 8,-0.00003353,0.00000268,-0.00010670,0.00009246,-0.00004465,-0.0001526
 7,-0.00036279,-0.00000200,0.00003952,0.00007619,0.00000713,0.01492120,
 0.04660148,0.00343565,0.00053127,0.00129116,-0.00099323,-0.00028889,-0
 .00027093,-0.00044062,0.00018684,-0.00054634,-0.00088703,0.00048309,0.
 00004549,-0.00287026,0.00353567,-0.00163168,-0.13152966,-0.01907853,-0
 .08029468,0.00012949,-0.00031451,-0.00106592,-0.02992394,-0.01127617,-
 0.01938253,-0.00036477,-0.00520658,-0.00388008,0.00026824,0.00098566,0
 .00020172,-0.00091261,-0.00300349,-0.00334300,0.00042576,-0.00001421,-
 0.00065529,-0.00090570,0.00071700,-0.00003681,0.00000788,-0.00025451,0
 .00005793,0.00003918,0.00003407,0.00012286,-0.00011790,-0.00003434,-0.
 00006270,0.00036994,0.00043652,0.00024077,0.00000806,-0.00004993,-0.00
 003793,-0.00008029,-0.00008100,-0.00005949,0.00021770,-0.00036420,0.00
 016604,-0.00001239,0.00008709,0.00000168,-0.00007920,0.00007315,-0.000
 02387,0.00002274,-0.00010971,-0.00000755,0.00004915,0.00001903,0.00001
 047,-0.00006429,0.00005113,-0.00004988,-0.00018495,-0.00003256,-0.0000
 7807,0.00001655,0.00001910,-0.00001620,0.16437649,0.03294901,0.1093048
 4\\-0.00000279,-0.00000009,0.00000074,0.00000046,0.00000026,0.00000028
 ,-0.00000190,-0.00000112,0.00000032,0.00000083,0.00000170,0.00000027,0
 .00000060,0.00000017,-0.00000029,0.00000040,0.00000045,-0.00000216,-0.
 00000058,-0.00000168,-0.00000052,-0.00000005,0.00000180,-0.00000197,0.
 00000070,0.00000173,-0.00000262,-0.00000043,0.00000101,-0.00000256,0.0
 0000012,0.00000122,-0.00000176,0.00000108,0.00000098,-0.00000085,0.000
 00106,0.00000088,-0.00000170,0.00000070,-0.00000043,0.00000099,0.00000
 031,-0.00000016,0.00000090,0.00000005,-0.00000108,0.00000206,0.0000007
 0,-0.00000012,0.00000122,0.00000187,0.00000017,0.00000176,0.00000422,-
 0.00000192,0.00000275,-0.00000075,-0.00000026,0.00000058,-0.00000028,-
 0.00000004,-0.00000031,-0.00000050,-0.00000119,0.00000041,-0.00000143,
 -0.00000047,-0.00000026,-0.00000194,-0.00000078,-0.00000066,-0.0000018
 6,-0.00000121,0.00000003,0.00000158,0.00000027,0.00000266,-0.00000112,
 -0.00000149,0.00000219,-0.00000104,0.00000140,-0.00000151\\\@
 The archive entry for this job was punched.


 A leading authority is anyone who has guessed right more than once.
 -- Frank A. Clark
 Job cpu time:       0 days 14 hours 18 minutes 38.8 seconds.
 Elapsed time:       0 days  3 hours 34 minutes 53.6 seconds.
 File lengths (MBytes):  RWF=    936 Int=      0 D2E=      0 Chk=     34 Scr=      1
 Normal termination of Gaussian 16 at Thu Feb 29 19:21:37 2024.
