 Entering Gaussian System, Link 0=/opt/software/gaussian/g16.c01/g16
 Initial command:
 /opt/software/gaussian/g16.c01/l1.exe "/scratch/arhender/17114850/Gau-18269.inp" -scrdir="/scratch/arhender/17114850/"
 Entering Link 1 = /opt/software/gaussian/g16.c01/l1.exe PID=     18270.
  
 Copyright (c) 1988-2019, Gaussian, Inc.  All Rights Reserved.
  
 This is part of the Gaussian(R) 16 program.  It is based on
 the Gaussian(R) 09 system (copyright 2009, Gaussian, Inc.),
 the Gaussian(R) 03 system (copyright 2003, Gaussian, Inc.),
 the Gaussian(R) 98 system (copyright 1998, Gaussian, Inc.),
 the Gaussian(R) 94 system (copyright 1995, Gaussian, Inc.),
 the Gaussian 92(TM) system (copyright 1992, Gaussian, Inc.),
 the Gaussian 90(TM) system (copyright 1990, Gaussian, Inc.),
 the Gaussian 88(TM) system (copyright 1988, Gaussian, Inc.),
 the Gaussian 86(TM) system (copyright 1986, Carnegie Mellon
 University), and the Gaussian 82(TM) system (copyright 1983,
 Carnegie Mellon University). Gaussian is a federally registered
 trademark of Gaussian, Inc.
  
 This software contains proprietary and confidential information,
 including trade secrets, belonging to Gaussian, Inc.
  
 This software is provided under written license and may be
 used, copied, transmitted, or stored only in accord with that
 written license.
  
 The following legend is applicable only to US Government
 contracts under FAR:
  
                    RESTRICTED RIGHTS LEGEND
  
 Use, reproduction and disclosure by the US Government is
 subject to restrictions as set forth in subparagraphs (a)
 and (c) of the Commercial Computer Software - Restricted
 Rights clause in FAR 52.227-19.
  
 Gaussian, Inc.
 340 Quinnipiac St., Bldg. 40, Wallingford CT 06492
  
  
 ---------------------------------------------------------------
 Warning -- This program may not be used in any manner that
 competes with the business of Gaussian, Inc. or will provide
 assistance to any competitor of Gaussian, Inc.  The licensee
 of this program is prohibited from giving any competitor of
 Gaussian, Inc. access to this program.  By using this program,
 the user acknowledges that Gaussian, Inc. is engaged in the
 business of creating and licensing software in the field of
 computational chemistry and represents and warrants to the
 licensee that it is not a competitor of Gaussian, Inc. and that
 it will not use this program in any manner prohibited above.
 ---------------------------------------------------------------
  

 Cite this work as:
 Gaussian 16, Revision C.01,
 M. J. Frisch, G. W. Trucks, H. B. Schlegel, G. E. Scuseria, 
 M. A. Robb, J. R. Cheeseman, G. Scalmani, V. Barone, 
 G. A. Petersson, H. Nakatsuji, X. Li, M. Caricato, A. V. Marenich, 
 J. Bloino, B. G. Janesko, R. Gomperts, B. Mennucci, H. P. Hratchian, 
 J. V. Ortiz, A. F. Izmaylov, J. L. Sonnenberg, D. Williams-Young, 
 F. Ding, F. Lipparini, F. Egidi, J. Goings, B. Peng, A. Petrone, 
 T. Henderson, D. Ranasinghe, V. G. Zakrzewski, J. Gao, N. Rega, 
 G. Zheng, W. Liang, M. Hada, M. Ehara, K. Toyota, R. Fukuda, 
 J. Hasegawa, M. Ishida, T. Nakajima, Y. Honda, O. Kitao, H. Nakai, 
 T. Vreven, K. Throssell, J. A. Montgomery, Jr., J. E. Peralta, 
 F. Ogliaro, M. J. Bearpark, J. J. Heyd, E. N. Brothers, K. N. Kudin, 
 V. N. Staroverov, T. A. Keith, R. Kobayashi, J. Normand, 
 K. Raghavachari, A. P. Rendell, J. C. Burant, S. S. Iyengar, 
 J. Tomasi, M. Cossi, J. M. Millam, M. Klene, C. Adamo, R. Cammi, 
 J. W. Ochterski, R. L. Martin, K. Morokuma, O. Farkas, 
 J. B. Foresman, and D. J. Fox, Gaussian, Inc., Wallingford CT, 2019.
 
 ******************************************
 Gaussian 16:  ES64L-G16RevC.01  3-Jul-2019
                20-Feb-2024 
 ******************************************
 %chk=Convert_EGOHattQ0_toQL_noFreezing_directTSopt.chk
 %mem=1600MB
 %nprocs=4
 Will use up to    4 processors via shared memory.
 ------------------------------------------------------------------
 # opt=(calcall,ts,noeigen) freq wb97xd/def2tzvpp geom=connectivity
 ------------------------------------------------------------------
 1/5=1,10=4,11=1,18=20,26=3,38=1,57=2/1,3;
 2/9=110,12=2,17=6,18=5,40=1/2;
 3/5=44,7=202,11=2,25=1,30=1,71=2,74=-58,140=1/1,2,3;
 4//1;
 5/5=2,38=5/2;
 8/6=4,10=90,11=11/1;
 11/6=1,8=1,9=11,15=111,16=1/1,2,10;
 10/6=1/2;
 6/7=2,8=2,9=2,10=2,18=1,28=1/1;
 7/10=1,25=1/1,2,3,16;
 1/5=1,10=4,11=1,18=20,26=3/3(3);
 2/9=110/2;
 7/8=1,9=1,25=1,44=-1/16;
 99//99;
 2/9=110/2;
 3/5=44,7=202,11=2,25=1,30=1,71=2,74=-58,140=1/1,2,3;
 4/5=5,16=3,69=1/1;
 5/5=2,38=5/2;
 8/6=4,10=90,11=11/1;
 11/6=1,8=1,9=11,15=111,16=1/1,2,10;
 10/6=1/2;
 7/10=1,25=1/1,2,3,16;
 1/5=1,10=4,11=1,18=20,26=3/3(-8);
 2/9=110/2;
 6/7=2,8=2,9=2,10=2,18=1,19=2,28=1/1;
 7/8=1,9=1,25=1,44=-1/16;
 99//99;
 ---------------------------------------------------------------------
 Convert EGOH attack on Q0 to attack on QbiL direct TS opt no freezing
 ---------------------------------------------------------------------
 Symbolic Z-matrix:
 Charge =  0 Multiplicity = 1
 Si                    0.91731  -0.08748  -0.02743 
 O                     1.7976   -0.94932  -1.11272 
 O                     2.43126   0.9887    0.50385 
 H                     3.17897   0.90304  -0.09006 
 O                     0.35631   1.36462  -0.37473 
 H                     1.63587   1.64252   0.07284 
 O                     0.69269  -0.83118   1.41832 
 C                    -1.93413  -1.06027   0.19837 
 H                    -1.64306  -1.65746   1.05638 
 H                    -2.7008   -1.57745  -0.37834 
 C                    -2.38279   0.34589   0.58514 
 H                    -1.7508    0.72442   1.39185 
 H                    -3.41113   0.30039   0.94829 
 O                    -0.76981  -0.97045  -0.66074 
 H                    -1.0399   -0.35376  -1.35884 
 O                    -2.3269    1.1915   -0.5347 
 H                    -1.41463   1.54771  -0.55165 
 C                     2.00254  -1.9349    1.21766 
 H                     1.66104  -2.76566   1.79915 
 H                     2.86605  -1.50582   1.6815 
 C                     2.26091  -2.38112  -0.14889 
 H                     2.91125  -3.20238   0.06902 
 H                     1.41153  -2.73408  -0.69558 
 
 Add virtual bond connecting atoms H6         and O3         Dist= 2.11D+00.
 Add virtual bond connecting atoms H17        and O5         Dist= 3.38D+00.

 GradGradGradGradGradGradGradGradGradGradGradGradGradGradGradGradGradGrad
 Berny optimization.
 Initialization pass.
                           ----------------------------
                           !    Initial Parameters    !
                           ! (Angstroms and Degrees)  !
 --------------------------                            --------------------------
 ! Name  Definition              Value          Derivative Info.                !
 --------------------------------------------------------------------------------
 ! R1    R(1,2)                  1.6418         calculate D2E/DX2 analytically  !
 ! R2    R(1,3)                  1.932          calculate D2E/DX2 analytically  !
 ! R3    R(1,5)                  1.595          calculate D2E/DX2 analytically  !
 ! R4    R(1,7)                  1.6413         calculate D2E/DX2 analytically  !
 ! R5    R(2,21)                 1.7871         calculate D2E/DX2 analytically  !
 ! R6    R(3,4)                  0.9587         calculate D2E/DX2 analytically  !
 ! R7    R(3,6)                  1.1162         calculate D2E/DX2 analytically  !
 ! R8    R(5,17)                 1.7891         calculate D2E/DX2 analytically  !
 ! R9    R(7,18)                 1.7246         calculate D2E/DX2 analytically  !
 ! R10   R(8,9)                  1.0851         calculate D2E/DX2 analytically  !
 ! R11   R(8,10)                 1.0899         calculate D2E/DX2 analytically  !
 ! R12   R(8,11)                 1.5258         calculate D2E/DX2 analytically  !
 ! R13   R(8,14)                 1.4497         calculate D2E/DX2 analytically  !
 ! R14   R(11,12)                1.0925         calculate D2E/DX2 analytically  !
 ! R15   R(11,13)                1.0915         calculate D2E/DX2 analytically  !
 ! R16   R(11,16)                1.4044         calculate D2E/DX2 analytically  !
 ! R17   R(14,15)                0.9698         calculate D2E/DX2 analytically  !
 ! R18   R(16,17)                0.9795         calculate D2E/DX2 analytically  !
 ! R19   R(18,19)                1.07           calculate D2E/DX2 analytically  !
 ! R20   R(18,20)                1.07           calculate D2E/DX2 analytically  !
 ! R21   R(18,21)                1.4606         calculate D2E/DX2 analytically  !
 ! R22   R(21,22)                1.07           calculate D2E/DX2 analytically  !
 ! R23   R(21,23)                1.07           calculate D2E/DX2 analytically  !
 ! A1    A(2,1,3)               93.0973         calculate D2E/DX2 analytically  !
 ! A2    A(2,1,5)              121.5042         calculate D2E/DX2 analytically  !
 ! A3    A(2,1,7)              114.6965         calculate D2E/DX2 analytically  !
 ! A4    A(3,1,5)               80.117          calculate D2E/DX2 analytically  !
 ! A5    A(3,1,7)               96.7435         calculate D2E/DX2 analytically  !
 ! A6    A(5,1,7)              123.7938         calculate D2E/DX2 analytically  !
 ! A7    A(1,2,21)             101.716          calculate D2E/DX2 analytically  !
 ! A8    A(1,3,4)              113.0192         calculate D2E/DX2 analytically  !
 ! A9    A(1,3,6)               70.2267         calculate D2E/DX2 analytically  !
 ! A10   A(4,3,6)              111.6468         calculate D2E/DX2 analytically  !
 ! A11   A(1,5,17)             117.5713         calculate D2E/DX2 analytically  !
 ! A12   A(1,7,18)              94.7929         calculate D2E/DX2 analytically  !
 ! A13   A(9,8,10)             110.2386         calculate D2E/DX2 analytically  !
 ! A14   A(9,8,11)             112.6821         calculate D2E/DX2 analytically  !
 ! A15   A(9,8,14)             106.6919         calculate D2E/DX2 analytically  !
 ! A16   A(10,8,11)            111.3823         calculate D2E/DX2 analytically  !
 ! A17   A(10,8,14)            106.3068         calculate D2E/DX2 analytically  !
 ! A18   A(11,8,14)            109.2242         calculate D2E/DX2 analytically  !
 ! A19   A(8,11,12)            109.6572         calculate D2E/DX2 analytically  !
 ! A20   A(8,11,13)            108.8413         calculate D2E/DX2 analytically  !
 ! A21   A(8,11,16)            109.9429         calculate D2E/DX2 analytically  !
 ! A22   A(12,11,13)           108.2868         calculate D2E/DX2 analytically  !
 ! A23   A(12,11,16)           110.9258         calculate D2E/DX2 analytically  !
 ! A24   A(13,11,16)           109.1409         calculate D2E/DX2 analytically  !
 ! A25   A(8,14,15)            104.0215         calculate D2E/DX2 analytically  !
 ! A26   A(11,16,17)           105.6549         calculate D2E/DX2 analytically  !
 ! A27   A(5,17,16)            152.0023         calculate D2E/DX2 analytically  !
 ! A28   A(7,18,19)            101.026          calculate D2E/DX2 analytically  !
 ! A29   A(7,18,20)            107.8096         calculate D2E/DX2 analytically  !
 ! A30   A(7,18,21)            116.0233         calculate D2E/DX2 analytically  !
 ! A31   A(19,18,20)           109.4712         calculate D2E/DX2 analytically  !
 ! A32   A(19,18,21)           109.1305         calculate D2E/DX2 analytically  !
 ! A33   A(20,18,21)           112.665          calculate D2E/DX2 analytically  !
 ! A34   A(2,21,18)            102.3558         calculate D2E/DX2 analytically  !
 ! A35   A(2,21,22)            151.9277         calculate D2E/DX2 analytically  !
 ! A36   A(2,21,23)             77.463          calculate D2E/DX2 analytically  !
 ! A37   A(18,21,22)            98.7116         calculate D2E/DX2 analytically  !
 ! A38   A(18,21,23)           116.0009         calculate D2E/DX2 analytically  !
 ! A39   A(22,21,23)           109.4712         calculate D2E/DX2 analytically  !
 ! D1    D(3,1,2,21)            94.9198         calculate D2E/DX2 analytically  !
 ! D2    D(5,1,2,21)           175.2227         calculate D2E/DX2 analytically  !
 ! D3    D(7,1,2,21)            -3.9576         calculate D2E/DX2 analytically  !
 ! D4    D(2,1,3,4)             12.9393         calculate D2E/DX2 analytically  !
 ! D5    D(2,1,3,6)            118.7923         calculate D2E/DX2 analytically  !
 ! D6    D(5,1,3,4)           -108.5125         calculate D2E/DX2 analytically  !
 ! D7    D(5,1,3,6)             -2.6595         calculate D2E/DX2 analytically  !
 ! D8    D(7,1,3,4)            128.2633         calculate D2E/DX2 analytically  !
 ! D9    D(7,1,3,6)           -125.8837         calculate D2E/DX2 analytically  !
 ! D10   D(2,1,5,17)           111.5163         calculate D2E/DX2 analytically  !
 ! D11   D(3,1,5,17)          -160.9168         calculate D2E/DX2 analytically  !
 ! D12   D(7,1,5,17)           -69.3799         calculate D2E/DX2 analytically  !
 ! D13   D(2,1,7,18)            19.1977         calculate D2E/DX2 analytically  !
 ! D14   D(3,1,7,18)           -77.3634         calculate D2E/DX2 analytically  !
 ! D15   D(5,1,7,18)          -159.9613         calculate D2E/DX2 analytically  !
 ! D16   D(1,2,21,18)          -16.4912         calculate D2E/DX2 analytically  !
 ! D17   D(1,2,21,22)         -154.2415         calculate D2E/DX2 analytically  !
 ! D18   D(1,2,21,23)           97.7783         calculate D2E/DX2 analytically  !
 ! D19   D(1,5,17,16)            1.6993         calculate D2E/DX2 analytically  !
 ! D20   D(1,7,18,19)         -151.3334         calculate D2E/DX2 analytically  !
 ! D21   D(1,7,18,20)           93.8768         calculate D2E/DX2 analytically  !
 ! D22   D(1,7,18,21)          -33.5139         calculate D2E/DX2 analytically  !
 ! D23   D(9,8,11,12)           38.7039         calculate D2E/DX2 analytically  !
 ! D24   D(9,8,11,13)          -79.5868         calculate D2E/DX2 analytically  !
 ! D25   D(9,8,11,16)          160.9167         calculate D2E/DX2 analytically  !
 ! D26   D(10,8,11,12)         163.1954         calculate D2E/DX2 analytically  !
 ! D27   D(10,8,11,13)          44.9047         calculate D2E/DX2 analytically  !
 ! D28   D(10,8,11,16)         -74.5918         calculate D2E/DX2 analytically  !
 ! D29   D(14,8,11,12)         -79.6831         calculate D2E/DX2 analytically  !
 ! D30   D(14,8,11,13)         162.0261         calculate D2E/DX2 analytically  !
 ! D31   D(14,8,11,16)          42.5296         calculate D2E/DX2 analytically  !
 ! D32   D(9,8,14,15)         -173.973          calculate D2E/DX2 analytically  !
 ! D33   D(10,8,14,15)          68.3808         calculate D2E/DX2 analytically  !
 ! D34   D(11,8,14,15)         -51.9054         calculate D2E/DX2 analytically  !
 ! D35   D(8,11,16,17)         -87.7742         calculate D2E/DX2 analytically  !
 ! D36   D(12,11,16,17)         33.6831         calculate D2E/DX2 analytically  !
 ! D37   D(13,11,16,17)        152.9123         calculate D2E/DX2 analytically  !
 ! D38   D(11,16,17,5)          41.3479         calculate D2E/DX2 analytically  !
 ! D39   D(7,18,21,2)           32.4433         calculate D2E/DX2 analytically  !
 ! D40   D(7,18,21,22)        -166.2255         calculate D2E/DX2 analytically  !
 ! D41   D(7,18,21,23)         -49.486          calculate D2E/DX2 analytically  !
 ! D42   D(19,18,21,2)         145.6862         calculate D2E/DX2 analytically  !
 ! D43   D(19,18,21,22)        -52.9826         calculate D2E/DX2 analytically  !
 ! D44   D(19,18,21,23)         63.757          calculate D2E/DX2 analytically  !
 ! D45   D(20,18,21,2)         -92.4975         calculate D2E/DX2 analytically  !
 ! D46   D(20,18,21,22)         68.8337         calculate D2E/DX2 analytically  !
 ! D47   D(20,18,21,23)       -174.4267         calculate D2E/DX2 analytically  !
 --------------------------------------------------------------------------------
 Trust Radius=3.00D-01 FncErr=1.00D-07 GrdErr=1.00D-06 EigMax=2.50D+02 EigMin=1.00D-04
 Number of steps in this run=    119 maximum allowed number of steps=    138.
 Search for a saddle point of order  1.
 GradGradGradGradGradGradGradGradGradGradGradGradGradGradGradGradGradGrad

                          Input orientation:                          
 ---------------------------------------------------------------------
 Center     Atomic      Atomic             Coordinates (Angstroms)
 Number     Number       Type             X           Y           Z
 ---------------------------------------------------------------------
      1         14           0        0.917312   -0.087482   -0.027426
      2          8           0        1.797599   -0.949323   -1.112718
      3          8           0        2.431256    0.988703    0.503848
      4          1           0        3.178968    0.903042   -0.090057
      5          8           0        0.356308    1.364616   -0.374728
      6          1           0        1.635873    1.642521    0.072838
      7          8           0        0.692686   -0.831177    1.418324
      8          6           0       -1.934130   -1.060268    0.198369
      9          1           0       -1.643058   -1.657457    1.056378
     10          1           0       -2.700803   -1.577445   -0.378341
     11          6           0       -2.382792    0.345885    0.585135
     12          1           0       -1.750796    0.724423    1.391848
     13          1           0       -3.411134    0.300392    0.948293
     14          8           0       -0.769810   -0.970448   -0.660735
     15          1           0       -1.039899   -0.353757   -1.358835
     16          8           0       -2.326897    1.191504   -0.534701
     17          1           0       -1.414628    1.547705   -0.551653
     18          6           0        2.002544   -1.934905    1.217661
     19          1           0        1.661042   -2.765659    1.799146
     20          1           0        2.866046   -1.505820    1.681504
     21          6           0        2.260914   -2.381116   -0.148887
     22          1           0        2.911251   -3.202382    0.069018
     23          1           0        1.411533   -2.734079   -0.695577
 ---------------------------------------------------------------------
                    Distance matrix (angstroms):
                    1          2          3          4          5
     1  Si   0.000000
     2  O    1.641808   0.000000
     3  O    1.931956   2.602067   0.000000
     4  H    2.469848   2.526910   0.958715   0.000000
     5  O    1.594971   2.824228   2.284429   2.874282   0.000000
     6  H    1.875978   2.854707   1.116191   1.718868   1.383775
     7  O    1.641259   2.764230   2.677845   3.385901   2.854767
     8  C    3.021261   3.956900   4.831997   5.484665   3.384466
     9  H    3.192953   4.128505   4.889528   5.578746   3.895954
    10  H    3.928599   4.601029   5.805291   6.388085   4.242837
    11  C    3.384335   4.694245   4.857456   5.630229   3.076007
    12  H    3.129270   4.654609   4.283450   5.150779   2.823212
    13  H    4.453978   5.739377   5.899561   6.698567   4.132381
    14  O    2.006761   2.606976   3.929548   4.407776   2.608154
    15  H    2.382064   2.909754   4.161815   4.581286   2.422946
    16  O    3.523922   4.682810   4.874396   5.531317   2.693538
    17  H    2.895962   4.107109   4.027082   4.661522   1.789145
    18  C    2.478092   2.538512   3.039870   3.338869   4.016545
    19  H    3.325978   3.434629   4.045523   4.396880   4.846362
    20  H    2.954605   3.042851   2.792591   3.006488   4.332006
    21  C    2.660972   1.787082   3.436678   3.410568   4.208210
    22  H    3.699689   2.777228   4.240833   4.117218   5.251868
    23  H    2.774014   1.873074   4.041975   4.088903   4.244496
                    6          7          8          9         10
     6  H    0.000000
     7  O    2.969700   0.000000
     8  C    4.479481   2.905329   0.000000
     9  H    4.754850   2.503886   1.085144   0.000000
    10  H    5.420194   3.911609   1.089887   1.784277   0.000000
    11  C    4.253632   3.396799   1.525828   2.186928   2.174538
    12  H    3.748629   2.896756   2.154791   2.407800   3.055271
    13  H    5.295282   4.282840   2.143670   2.640255   2.406408
    14  O    3.626713   2.545737   1.449748   2.045243   2.043753
    15  H    3.632433   3.307929   1.929687   2.810105   2.284159
    16  O    4.034361   4.125946   2.400445   3.334029   2.798452
    17  H    3.115210   3.739072   2.762958   3.593189   3.383910
    18  C    3.773996   1.724589   4.159489   3.659700   4.979605
    19  H    4.734218   2.196579   4.289068   3.563270   5.017867
    20  H    3.743419   2.290830   5.043798   4.554755   5.936152
    21  C    4.077927   2.705143   4.411759   4.149378   5.031617
    22  H    5.009959   3.516429   5.299349   4.909522   5.859667
    23  H    4.449204   2.933659   3.846329   3.682253   4.283661
                   11         12         13         14         15
    11  C    0.000000
    12  H    1.092472   0.000000
    13  H    1.091531   1.770103   0.000000
    14  O    2.426239   2.836903   3.343740   0.000000
    15  H    2.464118   3.038767   3.372463   0.969845   0.000000
    16  O    1.404360   2.064376   2.041794   2.667291   2.173337
    17  H    1.916768   2.137288   2.791355   2.601689   2.099410
    18  C    4.983298   4.603252   5.863192   3.484895   4.288918
    19  H    5.244818   4.897673   5.987619   3.896516   4.804706
    20  H    5.672842   5.135476   6.572898   4.357999   5.082058
    21  C    5.435009   5.302080   6.369177   3.381902   4.058266
    22  H    6.394018   6.237336   7.281147   4.366266   5.075925
    23  H    5.052060   5.130195   5.930299   2.805328   3.480713
                   16         17         18         19         20
    16  O    0.000000
    17  H    0.979490   0.000000
    18  C    5.620433   5.190001   0.000000
    19  H    6.083555   5.795784   1.070000   0.000000
    20  H    6.257298   5.712721   1.070000   1.747303   0.000000
    21  C    5.827561   5.395133   1.460586   2.074259   2.117229
    22  H    6.863593   6.454594   1.936912   2.178783   2.341042
    23  H    5.423278   5.132405   2.156027   2.507368   3.045446
                   21         22         23
    21  C    0.000000
    22  H    1.070000   0.000000
    23  H    1.070000   1.747303   0.000000
 Stoichiometry    C4H12O6Si
 Framework group  C1[X(C4H12O6Si)]
 Deg. of freedom    63
 Full point group                 C1      NOp   1
 Largest Abelian subgroup         C1      NOp   1
 Largest concise Abelian subgroup C1      NOp   1
                         Standard orientation:                         
 ---------------------------------------------------------------------
 Center     Atomic      Atomic             Coordinates (Angstroms)
 Number     Number       Type             X           Y           Z
 ---------------------------------------------------------------------
      1         14           0        0.460919    0.460545   -0.086963
      2          8           0        1.495036    0.119798   -1.315795
      3          8           0        1.555832    1.909396    0.572166
      4          1           0        2.240075    2.173153   -0.045392
      5          8           0       -0.584684    1.660882   -0.186153
      6          1           0        0.555028    2.299976    0.269312
      7          8           0        0.614241   -0.510283    1.227464
      8          6           0       -1.864581   -1.463381    0.049337
      9          1           0       -1.322853   -2.036637    0.794619
     10          1           0       -2.452212   -2.128041   -0.583727
     11          6           0       -2.732681   -0.369851    0.664760
     12          1           0       -2.206512    0.087156    1.506060
     13          1           0       -3.653272   -0.820218    1.040420
     14          8           0       -0.869795   -0.854954   -0.812050
     15          1           0       -1.386144   -0.278815   -1.396898
     16          8           0       -3.053654    0.591052   -0.307800
     17          1           0       -2.320656    1.240503   -0.289702
     18          6           0        2.201368   -1.050511    0.823250
     19          1           0        2.208048   -2.021115    1.273565
     20          1           0        2.900975   -0.418028    1.328637
     21          6           0        2.489695   -1.182332   -0.602514
     22          1           0        3.394936   -1.748569   -0.533120
     23          1           0        1.771101   -1.727684   -1.177939
 ---------------------------------------------------------------------
 Rotational constants (GHZ):           1.5891892           0.7395666           0.6294383
 Standard basis: def2TZVPP (5D, 7F)
 There are   588 symmetry adapted cartesian basis functions of A   symmetry.
 There are   520 symmetry adapted basis functions of A   symmetry.
   520 basis functions,   783 primitive gaussians,   588 cartesian basis functions
    49 alpha electrons       49 beta electrons
       nuclear repulsion energy       879.1364052961 Hartrees.
 NAtoms=   23 NActive=   23 NUniq=   23 SFac= 1.00D+00 NAtFMM=   60 NAOKFM=F Big=F
 Integral buffers will be    131072 words long.
 Raffenetti 2 integral format.
 Two-electron integral symmetry is turned on.
 Nuclear repulsion after empirical dispersion term =      879.1220948361 Hartrees.
 One-electron integrals computed using PRISM.
   1 Symmetry operations used in ECPInt.
 ECPInt:  NShTT=   19306 NPrTT=   52617 LenC2=   18288 LenP2D=   38604.
 LDataN:  DoStor=T MaxTD1= 6 Len=  172
 NBasis=   520 RedAO= T EigKep=  2.00D-04  NBF=   520
 NBsUse=   520 1.00D-06 EigRej= -1.00D+00 NBFU=   520
 ExpMin= 7.01D-02 ExpMax= 4.48D+04 ExpMxC= 1.53D+03 IAcc=3 IRadAn=         5 AccDes= 0.00D+00
 Harris functional with IExCor= 4639 and IRadAn=       5 diagonalized for initial guess.
 HarFok:  IExCor= 4639 AccDes= 0.00D+00 IRadAn=         5 IDoV= 1 UseB2=F ITyADJ=14
 ICtDFT=  3500011 ScaDFX=  1.000000  1.000000  1.000000  1.000000
 FoFCou: FMM=F IPFlag=           0 FMFlag=      100000 FMFlg1=           0
         NFxFlg=           0 DoJE=T BraDBF=F KetDBF=T FulRan=T
         wScrn=  0.000000 ICntrl=       500 IOpCl=  0 I1Cent=   200000004 NGrid=           0
         NMat0=    1 NMatS0=      1 NMatT0=    0 NMatD0=    1 NMtDS0=    0 NMtDT0=    0
 Petite list used in FoFCou.
 Requested convergence on RMS density matrix=1.00D-08 within 128 cycles.
 Requested convergence on MAX density matrix=1.00D-06.
 Requested convergence on             energy=1.00D-06.
 No special actions if energy rises.
 Integral accuracy reduced to 1.0D-05 until final iterations.
 Initial convergence to 1.0D-05 achieved.  Increase integral accuracy.
 SCF Done:  E(RwB97XD) =  -900.547171849     A.U. after   16 cycles
            NFock= 16  Conv=0.43D-08     -V/T= 2.0037
 DoSCS=F DFT=T ScalE2(SS,OS)=  1.000000  1.000000
 Range of M.O.s used for correlation:     1   520
 NBasis=   520 NAE=    49 NBE=    49 NFC=     0 NFV=     0
 NROrb=    520 NOA=    49 NOB=    49 NVA=   471 NVB=   471

 **** Warning!!: The largest alpha MO coefficient is  0.12226267D+02

   1 Symmetry operations used in ECPInt.
 ECPInt:  NShTT=   19306 NPrTT=   52617 LenC2=   18288 LenP2D=   38604.
 LDataN:  DoStor=T MaxTD1= 7 Len=  274
 Symmetrizing basis deriv contribution to polar:
 IMax=3 JMax=2 DiffMx= 0.00D+00
 G2DrvN: will do    24 centers at a time, making    1 passes.
 Calling FoFCou, ICntrl=  3107 FMM=F I1Cent=   0 AccDes= 0.00D+00.
 End of G2Drv F.D. properties file   721 does not exist.
 End of G2Drv F.D. properties file   722 does not exist.
 End of G2Drv F.D. properties file   788 does not exist.
          IDoAtm=11111111111111111111111
          Differentiating once with respect to electric field.
                with respect to dipole field.
          Differentiating once with respect to nuclear coordinates.
 CalDSu exits because no D1Ps are significant.
          There are    72 degrees of freedom in the 1st order CPHF.  IDoFFX=6 NUNeed=     3.
     69 vectors produced by pass  0 Test12= 3.21D-14 1.39D-09 XBig12= 4.27D+01 1.42D+00.
 AX will form    69 AO Fock derivatives at one time.
     69 vectors produced by pass  1 Test12= 3.21D-14 1.39D-09 XBig12= 5.59D+00 2.45D-01.
     69 vectors produced by pass  2 Test12= 3.21D-14 1.39D-09 XBig12= 1.66D-01 7.22D-02.
     69 vectors produced by pass  3 Test12= 3.21D-14 1.39D-09 XBig12= 2.37D-03 6.85D-03.
     69 vectors produced by pass  4 Test12= 3.21D-14 1.39D-09 XBig12= 2.61D-05 6.04D-04.
     69 vectors produced by pass  5 Test12= 3.21D-14 1.39D-09 XBig12= 1.93D-07 4.75D-05.
     69 vectors produced by pass  6 Test12= 3.21D-14 1.39D-09 XBig12= 1.35D-09 4.32D-06.
     27 vectors produced by pass  7 Test12= 3.21D-14 1.39D-09 XBig12= 8.34D-12 3.26D-07.
      4 vectors produced by pass  8 Test12= 3.21D-14 1.39D-09 XBig12= 5.06D-14 1.78D-08.
      2 vectors produced by pass  9 Test12= 3.21D-14 1.39D-09 XBig12= 9.50D-16 2.23D-09.
 InvSVY:  IOpt=1 It=  1 EMax= 2.66D-15
 Solved reduced A of dimension   516 with    72 vectors.
 Isotropic polarizability for W=    0.000000       96.44 Bohr**3.
 End of Minotr F.D. properties file   721 does not exist.
 End of Minotr F.D. properties file   722 does not exist.
 End of Minotr F.D. properties file   788 does not exist.

 **********************************************************************

            Population analysis using the SCF Density.

 **********************************************************************

 Orbital symmetries:
       Occupied  (A) (A) (A) (A) (A) (A) (A) (A) (A) (A) (A) (A)
                 (A) (A) (A) (A) (A) (A) (A) (A) (A) (A) (A) (A)
                 (A) (A) (A) (A) (A) (A) (A) (A) (A) (A) (A) (A)
                 (A) (A) (A) (A) (A) (A) (A) (A) (A) (A) (A) (A)
                 (A)
       Virtual   (A) (A) (A) (A) (A) (A) (A) (A) (A) (A) (A) (A)
                 (A) (A) (A) (A) (A) (A) (A) (A) (A) (A) (A) (A)
                 (A) (A) (A) (A) (A) (A) (A) (A) (A) (A) (A) (A)
                 (A) (A) (A) (A) (A) (A) (A) (A) (A) (A) (A) (A)
                 (A) (A) (A) (A) (A) (A) (A) (A) (A) (A) (A) (A)
                 (A) (A) (A) (A) (A) (A) (A) (A) (A) (A) (A) (A)
                 (A) (A) (A) (A) (A) (A) (A) (A) (A) (A) (A) (A)
                 (A) (A) (A) (A) (A) (A) (A) (A) (A) (A) (A) (A)
                 (A) (A) (A) (A) (A) (A) (A) (A) (A) (A) (A) (A)
                 (A) (A) (A) (A) (A) (A) (A) (A) (A) (A) (A) (A)
                 (A) (A) (A) (A) (A) (A) (A) (A) (A) (A) (A) (A)
                 (A) (A) (A) (A) (A) (A) (A) (A) (A) (A) (A) (A)
                 (A) (A) (A) (A) (A) (A) (A) (A) (A) (A) (A) (A)
                 (A) (A) (A) (A) (A) (A) (A) (A) (A) (A) (A) (A)
                 (A) (A) (A) (A) (A) (A) (A) (A) (A) (A) (A) (A)
                 (A) (A) (A) (A) (A) (A) (A) (A) (A) (A) (A) (A)
                 (A) (A) (A) (A) (A) (A) (A) (A) (A) (A) (A) (A)
                 (A) (A) (A) (A) (A) (A) (A) (A) (A) (A) (A) (A)
                 (A) (A) (A) (A) (A) (A) (A) (A) (A) (A) (A) (A)
                 (A) (A) (A) (A) (A) (A) (A) (A) (A) (A) (A) (A)
                 (A) (A) (A) (A) (A) (A) (A) (A) (A) (A) (A) (A)
                 (A) (A) (A) (A) (A) (A) (A) (A) (A) (A) (A) (A)
                 (A) (A) (A) (A) (A) (A) (A) (A) (A) (A) (A) (A)
                 (A) (A) (A) (A) (A) (A) (A) (A) (A) (A) (A) (A)
                 (A) (A) (A) (A) (A) (A) (A) (A) (A) (A) (A) (A)
                 (A) (A) (A) (A) (A) (A) (A) (A) (A) (A) (A) (A)
                 (A) (A) (A) (A) (A) (A) (A) (A) (A) (A) (A) (A)
                 (A) (A) (A) (A) (A) (A) (A) (A) (A) (A) (A) (A)
                 (A) (A) (A) (A) (A) (A) (A) (A) (A) (A) (A) (A)
                 (A) (A) (A) (A) (A) (A) (A) (A) (A) (A) (A) (A)
                 (A) (A) (A) (A) (A) (A) (A) (A) (A) (A) (A) (A)
                 (A) (A) (A) (A) (A) (A) (A) (A) (A) (A) (A) (A)
                 (A) (A) (A) (A) (A) (A) (A) (A) (A) (A) (A) (A)
                 (A) (A) (A) (A) (A) (A) (A) (A) (A) (A) (A) (A)
                 (A) (A) (A) (A) (A) (A) (A) (A) (A) (A) (A) (A)
                 (A) (A) (A) (A) (A) (A) (A) (A) (A) (A) (A) (A)
                 (A) (A) (A) (A) (A) (A) (A) (A) (A) (A) (A) (A)
                 (A) (A) (A) (A) (A) (A) (A) (A) (A) (A) (A) (A)
                 (A) (A) (A) (A) (A) (A) (A) (A) (A) (A) (A) (A)
                 (A) (A) (A)
 The electronic state is 1-A.
 Alpha  occ. eigenvalues --  -66.29507 -19.30828 -19.25788 -19.25313 -19.25172
 Alpha  occ. eigenvalues --  -19.22964 -19.17633 -10.38283 -10.37643 -10.34526
 Alpha  occ. eigenvalues --  -10.32559  -5.41149  -3.75903  -3.75577  -3.75424
 Alpha  occ. eigenvalues --   -1.18470  -1.13339  -1.10895  -1.08006  -1.04645
 Alpha  occ. eigenvalues --   -1.00226  -0.90970  -0.84797  -0.73710  -0.72708
 Alpha  occ. eigenvalues --   -0.64667  -0.64431  -0.60691  -0.59903  -0.59384
 Alpha  occ. eigenvalues --   -0.58972  -0.56649  -0.54414  -0.52458  -0.49912
 Alpha  occ. eigenvalues --   -0.49639  -0.49284  -0.48225  -0.45493  -0.44370
 Alpha  occ. eigenvalues --   -0.43968  -0.42460  -0.41397  -0.39753  -0.39018
 Alpha  occ. eigenvalues --   -0.37366  -0.36224  -0.35991  -0.34191
 Alpha virt. eigenvalues --   -0.01217   0.07281   0.09569   0.12244   0.12714
 Alpha virt. eigenvalues --    0.14090   0.15610   0.15756   0.16460   0.17727
 Alpha virt. eigenvalues --    0.18910   0.20359   0.20959   0.21684   0.22159
 Alpha virt. eigenvalues --    0.24048   0.25270   0.25828   0.26704   0.27528
 Alpha virt. eigenvalues --    0.28254   0.29462   0.29903   0.30621   0.31645
 Alpha virt. eigenvalues --    0.32241   0.33363   0.34421   0.35259   0.36651
 Alpha virt. eigenvalues --    0.38795   0.39990   0.40044   0.40427   0.42249
 Alpha virt. eigenvalues --    0.43019   0.43253   0.44714   0.45172   0.45704
 Alpha virt. eigenvalues --    0.46292   0.46766   0.47921   0.48462   0.48942
 Alpha virt. eigenvalues --    0.49725   0.50197   0.51621   0.51906   0.53601
 Alpha virt. eigenvalues --    0.54336   0.55487   0.55924   0.57357   0.57794
 Alpha virt. eigenvalues --    0.58244   0.58399   0.60061   0.60620   0.61836
 Alpha virt. eigenvalues --    0.63861   0.64330   0.66144   0.67424   0.69343
 Alpha virt. eigenvalues --    0.70045   0.70637   0.71881   0.72733   0.73777
 Alpha virt. eigenvalues --    0.75964   0.76310   0.79393   0.80077   0.80519
 Alpha virt. eigenvalues --    0.82495   0.83115   0.83990   0.84814   0.85603
 Alpha virt. eigenvalues --    0.86988   0.89617   0.91650   0.91979   0.92913
 Alpha virt. eigenvalues --    0.94335   0.96203   0.96513   0.97876   0.99330
 Alpha virt. eigenvalues --    0.99879   1.00797   1.01868   1.03343   1.03614
 Alpha virt. eigenvalues --    1.05052   1.05511   1.06870   1.07994   1.08429
 Alpha virt. eigenvalues --    1.08535   1.10386   1.11078   1.12485   1.14324
 Alpha virt. eigenvalues --    1.14638   1.16211   1.16985   1.19312   1.19809
 Alpha virt. eigenvalues --    1.20904   1.21217   1.22453   1.24302   1.25463
 Alpha virt. eigenvalues --    1.26064   1.27248   1.28466   1.28917   1.30078
 Alpha virt. eigenvalues --    1.30671   1.31877   1.32437   1.35202   1.36532
 Alpha virt. eigenvalues --    1.37251   1.38574   1.39204   1.40046   1.41401
 Alpha virt. eigenvalues --    1.41915   1.43675   1.44860   1.46001   1.48165
 Alpha virt. eigenvalues --    1.48604   1.50059   1.50960   1.52047   1.52858
 Alpha virt. eigenvalues --    1.53625   1.55435   1.56383   1.57398   1.61003
 Alpha virt. eigenvalues --    1.61595   1.62801   1.63249   1.64761   1.65275
 Alpha virt. eigenvalues --    1.66654   1.67987   1.68896   1.71207   1.72935
 Alpha virt. eigenvalues --    1.76911   1.79854   1.81868   1.82998   1.86041
 Alpha virt. eigenvalues --    1.87274   1.91192   1.92877   1.93669   1.95546
 Alpha virt. eigenvalues --    1.96971   1.99808   2.00974   2.02818   2.03144
 Alpha virt. eigenvalues --    2.04703   2.06292   2.08197   2.08951   2.11776
 Alpha virt. eigenvalues --    2.13435   2.14064   2.14523   2.17583   2.18068
 Alpha virt. eigenvalues --    2.20542   2.21693   2.23752   2.27089   2.28037
 Alpha virt. eigenvalues --    2.29367   2.32458   2.33456   2.34642   2.36796
 Alpha virt. eigenvalues --    2.40570   2.41500   2.42764   2.43461   2.44649
 Alpha virt. eigenvalues --    2.48419   2.52260   2.53320   2.57033   2.59785
 Alpha virt. eigenvalues --    2.60358   2.61902   2.64419   2.67064   2.68792
 Alpha virt. eigenvalues --    2.69392   2.70078   2.72142   2.73440   2.75866
 Alpha virt. eigenvalues --    2.78676   2.79444   2.79800   2.81173   2.84677
 Alpha virt. eigenvalues --    2.85628   2.88608   2.89603   2.90128   2.92324
 Alpha virt. eigenvalues --    2.94164   2.95423   2.96840   2.97672   2.97825
 Alpha virt. eigenvalues --    3.00296   3.03513   3.04945   3.06518   3.07729
 Alpha virt. eigenvalues --    3.08435   3.09050   3.10422   3.10947   3.12519
 Alpha virt. eigenvalues --    3.13252   3.14939   3.17170   3.17986   3.18448
 Alpha virt. eigenvalues --    3.20244   3.21251   3.22059   3.22553   3.25112
 Alpha virt. eigenvalues --    3.25794   3.26943   3.28166   3.30550   3.30927
 Alpha virt. eigenvalues --    3.33169   3.34292   3.34878   3.37047   3.38338
 Alpha virt. eigenvalues --    3.38654   3.40327   3.41100   3.42343   3.44632
 Alpha virt. eigenvalues --    3.45975   3.46999   3.49611   3.50374   3.50809
 Alpha virt. eigenvalues --    3.52910   3.53780   3.54352   3.57879   3.60585
 Alpha virt. eigenvalues --    3.61568   3.62418   3.62684   3.64354   3.66208
 Alpha virt. eigenvalues --    3.67533   3.69841   3.71007   3.71190   3.72390
 Alpha virt. eigenvalues --    3.74515   3.75055   3.76208   3.77912   3.79021
 Alpha virt. eigenvalues --    3.81566   3.83642   3.85134   3.86139   3.86980
 Alpha virt. eigenvalues --    3.87661   3.89952   3.91936   3.93652   3.94014
 Alpha virt. eigenvalues --    3.95304   3.96911   4.00490   4.01272   4.02178
 Alpha virt. eigenvalues --    4.03548   4.05094   4.06061   4.07458   4.08932
 Alpha virt. eigenvalues --    4.09588   4.11300   4.13896   4.14097   4.14650
 Alpha virt. eigenvalues --    4.16120   4.17203   4.18257   4.18694   4.19530
 Alpha virt. eigenvalues --    4.22153   4.22621   4.23807   4.25725   4.27222
 Alpha virt. eigenvalues --    4.28841   4.30453   4.31686   4.32296   4.33551
 Alpha virt. eigenvalues --    4.36569   4.37406   4.39013   4.43686   4.44287
 Alpha virt. eigenvalues --    4.44938   4.46606   4.48375   4.49935   4.50830
 Alpha virt. eigenvalues --    4.54780   4.56912   4.58810   4.61642   4.63820
 Alpha virt. eigenvalues --    4.64958   4.69667   4.72424   4.72865   4.74812
 Alpha virt. eigenvalues --    4.76115   4.77163   4.78466   4.82499   4.83823
 Alpha virt. eigenvalues --    4.87528   4.89430   4.92920   4.94725   4.95837
 Alpha virt. eigenvalues --    4.97279   4.97899   4.99129   5.01822   5.04287
 Alpha virt. eigenvalues --    5.06904   5.07704   5.08483   5.11568   5.13507
 Alpha virt. eigenvalues --    5.16807   5.18104   5.20555   5.21852   5.23622
 Alpha virt. eigenvalues --    5.27457   5.29017   5.32853   5.33728   5.36187
 Alpha virt. eigenvalues --    5.37949   5.38590   5.39816   5.39994   5.43341
 Alpha virt. eigenvalues --    5.43734   5.45056   5.45880   5.47129   5.47980
 Alpha virt. eigenvalues --    5.49827   5.50640   5.52235   5.53158   5.54715
 Alpha virt. eigenvalues --    5.57255   5.58701   5.60852   5.61203   5.62908
 Alpha virt. eigenvalues --    5.63213   5.66531   5.68944   5.70537   5.71219
 Alpha virt. eigenvalues --    5.74409   5.75555   5.79613   5.79785   5.83577
 Alpha virt. eigenvalues --    5.85984   5.87906   5.89310   5.91864   5.97051
 Alpha virt. eigenvalues --    6.01293   6.01810   6.04938   6.06570   6.16562
 Alpha virt. eigenvalues --    6.21935   6.50632   6.53955   6.57911   6.60660
 Alpha virt. eigenvalues --    6.64404   6.67038   6.68273   6.70185   6.71218
 Alpha virt. eigenvalues --    6.72124   6.75175   6.76008   6.78477   6.80094
 Alpha virt. eigenvalues --    6.80887   6.82408   6.85694   6.86664   6.87666
 Alpha virt. eigenvalues --    6.88569   6.91983   6.95800   6.99486   7.00922
 Alpha virt. eigenvalues --    7.02354   7.04853   7.09409   7.11691   7.16074
 Alpha virt. eigenvalues --    7.16540   7.19116   7.24686   7.30399   7.33055
 Alpha virt. eigenvalues --    7.34614   7.42356   7.45039   7.54999   7.57814
 Alpha virt. eigenvalues --    7.62980   7.66667   7.72435   7.78921   7.85706
 Alpha virt. eigenvalues --   13.00820  23.28374  23.41876  23.43092  23.49270
 Alpha virt. eigenvalues --   43.94762  44.00425  44.06686  44.15218  44.21611
 Alpha virt. eigenvalues --   44.26828
          Condensed to atoms (all electrons):
               1          2          3          4          5          6
     1  Si  11.516539   0.430733   0.224281  -0.013808   0.514915  -0.004512
     2  O    0.430733   8.013836  -0.037429   0.005357  -0.015005   0.002518
     3  O    0.224281  -0.037429   7.773910   0.317304  -0.132879   0.231124
     4  H   -0.013808   0.005357   0.317304   0.516729   0.005822  -0.006711
     5  O    0.514915  -0.015005  -0.132879   0.005822   8.195692   0.130634
     6  H   -0.004512   0.002518   0.231124  -0.006711   0.130634   0.366444
     7  O    0.395113  -0.007115  -0.022153   0.001418  -0.019747   0.002423
     8  C   -0.010880   0.000671  -0.000026  -0.000021  -0.002602   0.000073
     9  H   -0.010155   0.000262   0.000057  -0.000005   0.000214  -0.000036
    10  H    0.001487  -0.000122   0.000002  -0.000001  -0.000168   0.000002
    11  C    0.007666  -0.000476   0.000052   0.000014   0.002773   0.000102
    12  H   -0.007335  -0.000071   0.000121  -0.000015   0.002367  -0.000040
    13  H    0.000834   0.000001  -0.000001   0.000001   0.000179   0.000004
    14  O    0.197832  -0.028042   0.000503   0.000135  -0.037795   0.000864
    15  H   -0.018794   0.002849   0.000218  -0.000087   0.006560  -0.000546
    16  O   -0.007118   0.000020  -0.000097   0.000011  -0.034494   0.000220
    17  H   -0.002349   0.000187   0.000461  -0.000046   0.055111  -0.000184
    18  C   -0.002462  -0.036150   0.007449  -0.001931  -0.000582  -0.000802
    19  H    0.004685   0.004414   0.000595   0.000056   0.000016  -0.000027
    20  H   -0.010537  -0.002158   0.004936  -0.000409   0.000137   0.000095
    21  C   -0.019172   0.153798  -0.003862   0.001814   0.000686  -0.000345
    22  H    0.002432   0.003675   0.000335  -0.000045  -0.000006   0.000021
    23  H   -0.009570  -0.044662   0.000594  -0.000095  -0.000067  -0.000092
               7          8          9         10         11         12
     1  Si   0.395113  -0.010880  -0.010155   0.001487   0.007666  -0.007335
     2  O   -0.007115   0.000671   0.000262  -0.000122  -0.000476  -0.000071
     3  O   -0.022153  -0.000026   0.000057   0.000002   0.000052   0.000121
     4  H    0.001418  -0.000021  -0.000005  -0.000001   0.000014  -0.000015
     5  O   -0.019747  -0.002602   0.000214  -0.000168   0.002773   0.002367
     6  H    0.002423   0.000073  -0.000036   0.000002   0.000102  -0.000040
     7  O    7.951507  -0.000301   0.011868   0.000693  -0.010186   0.004753
     8  C   -0.000301   4.926677   0.409110   0.411472   0.266953  -0.059444
     9  H    0.011868   0.409110   0.555881  -0.021022  -0.022079  -0.002142
    10  H    0.000693   0.411472  -0.021022   0.562167  -0.027674   0.007338
    11  C   -0.010186   0.266953  -0.022079  -0.027674   4.686565   0.446881
    12  H    0.004753  -0.059444  -0.002142   0.007338   0.446881   0.595436
    13  H   -0.000014  -0.041936   0.004262  -0.009295   0.423571  -0.028069
    14  O   -0.033642   0.210781  -0.027559  -0.031195  -0.039108   0.000124
    15  H    0.001937  -0.034631   0.009035  -0.004425  -0.010311   0.002989
    16  O    0.000088  -0.069717   0.004743   0.004075   0.266074  -0.041213
    17  H    0.000519   0.005634  -0.000761  -0.000822  -0.034919  -0.012530
    18  C    0.223062  -0.001092  -0.000046   0.000091   0.000295   0.000143
    19  H   -0.018951   0.000362  -0.000399  -0.000015  -0.000006  -0.000051
    20  H   -0.015067  -0.000063   0.000099   0.000003  -0.000010  -0.000007
    21  C   -0.032509   0.000193   0.000175   0.000157  -0.000085   0.000109
    22  H    0.003167  -0.000049   0.000010  -0.000005   0.000004  -0.000002
    23  H    0.000001  -0.000149   0.000116  -0.000070   0.000169   0.000010
              13         14         15         16         17         18
     1  Si   0.000834   0.197832  -0.018794  -0.007118  -0.002349  -0.002462
     2  O    0.000001  -0.028042   0.002849   0.000020   0.000187  -0.036150
     3  O   -0.000001   0.000503   0.000218  -0.000097   0.000461   0.007449
     4  H    0.000001   0.000135  -0.000087   0.000011  -0.000046  -0.001931
     5  O    0.000179  -0.037795   0.006560  -0.034494   0.055111  -0.000582
     6  H    0.000004   0.000864  -0.000546   0.000220  -0.000184  -0.000802
     7  O   -0.000014  -0.033642   0.001937   0.000088   0.000519   0.223062
     8  C   -0.041936   0.210781  -0.034631  -0.069717   0.005634  -0.001092
     9  H    0.004262  -0.027559   0.009035   0.004743  -0.000761  -0.000046
    10  H   -0.009295  -0.031195  -0.004425   0.004075  -0.000822   0.000091
    11  C    0.423571  -0.039108  -0.010311   0.266074  -0.034919   0.000295
    12  H   -0.028069   0.000124   0.002989  -0.041213  -0.012530   0.000143
    13  H    0.593905   0.003576   0.000709  -0.028194   0.004385  -0.000017
    14  O    0.003576   7.672279   0.317948  -0.010732   0.000942   0.000144
    15  H    0.000709   0.317948   0.497321   0.043386  -0.003366   0.000410
    16  O   -0.028194  -0.010732   0.043386   7.957303   0.336663   0.000034
    17  H    0.004385   0.000942  -0.003366   0.336663   0.412410   0.000035
    18  C   -0.000017   0.000144   0.000410   0.000034   0.000035   4.813765
    19  H    0.000001  -0.000107   0.000005   0.000001  -0.000000   0.383739
    20  H    0.000000  -0.000004  -0.000015   0.000001  -0.000001   0.440986
    21  C    0.000013  -0.000020   0.000302   0.000029  -0.000044   0.234827
    22  H   -0.000000   0.000001   0.000004   0.000000   0.000000  -0.028374
    23  H   -0.000002   0.006974  -0.000072   0.000002   0.000011  -0.020929
              19         20         21         22         23
     1  Si   0.004685  -0.010537  -0.019172   0.002432  -0.009570
     2  O    0.004414  -0.002158   0.153798   0.003675  -0.044662
     3  O    0.000595   0.004936  -0.003862   0.000335   0.000594
     4  H    0.000056  -0.000409   0.001814  -0.000045  -0.000095
     5  O    0.000016   0.000137   0.000686  -0.000006  -0.000067
     6  H   -0.000027   0.000095  -0.000345   0.000021  -0.000092
     7  O   -0.018951  -0.015067  -0.032509   0.003167   0.000001
     8  C    0.000362  -0.000063   0.000193  -0.000049  -0.000149
     9  H   -0.000399   0.000099   0.000175   0.000010   0.000116
    10  H   -0.000015   0.000003   0.000157  -0.000005  -0.000070
    11  C   -0.000006  -0.000010  -0.000085   0.000004   0.000169
    12  H   -0.000051  -0.000007   0.000109  -0.000002   0.000010
    13  H    0.000001   0.000000   0.000013  -0.000000  -0.000002
    14  O   -0.000107  -0.000004  -0.000020   0.000001   0.006974
    15  H    0.000005  -0.000015   0.000302   0.000004  -0.000072
    16  O    0.000001   0.000001   0.000029   0.000000   0.000002
    17  H   -0.000000  -0.000001  -0.000044   0.000000   0.000011
    18  C    0.383739   0.440986   0.234827  -0.028374  -0.020929
    19  H    0.557381  -0.027841  -0.018214   0.002732  -0.009118
    20  H   -0.027841   0.528944  -0.034897  -0.008142   0.006352
    21  C   -0.018214  -0.034897   4.916790   0.375097   0.446149
    22  H    0.002732  -0.008142   0.375097   0.557135  -0.035930
    23  H   -0.009118   0.006352   0.446149  -0.035930   0.542732
 Mulliken charges:
               1
     1  Si   0.820176
     2  O   -0.447091
     3  O   -0.365494
     4  H    0.174516
     5  O   -0.671762
     6  H    0.278770
     7  O   -0.436862
     8  C   -0.011013
     9  H    0.088373
    10  H    0.107328
    11  C    0.043734
    12  H    0.090648
    13  H    0.076087
    14  O   -0.203898
    15  H    0.188573
    16  O   -0.421086
    17  H    0.238666
    18  C   -0.012596
    19  H    0.120744
    20  H    0.117599
    21  C   -0.020992
    22  H    0.127938
    23  H    0.117644
 Sum of Mulliken charges =  -0.00000
 Mulliken charges with hydrogens summed into heavy atoms:
               1
     1  Si   0.820176
     2  O   -0.447091
     3  O    0.087792
     5  O   -0.671762
     7  O   -0.436862
     8  C    0.184688
    11  C    0.210469
    14  O   -0.015325
    16  O   -0.182420
    18  C    0.225746
    21  C    0.224590
 APT charges:
               1
     1  Si   2.056184
     2  O   -0.838977
     3  O   -0.849845
     4  H    0.261296
     5  O   -1.143302
     6  H    0.607220
     7  O   -0.792525
     8  C    0.395808
     9  H    0.024208
    10  H   -0.038029
    11  C    0.396461
    12  H   -0.016122
    13  H   -0.025316
    14  O   -0.772737
    15  H    0.321762
    16  O   -0.725457
    17  H    0.446193
    18  C    0.297530
    19  H    0.033154
    20  H    0.015531
    21  C    0.219992
    22  H    0.079557
    23  H    0.047416
 Sum of APT charges =  -0.00000
 APT charges with hydrogens summed into heavy atoms:
               1
     1  Si   2.056184
     2  O   -0.838977
     3  O    0.018670
     5  O   -1.143302
     7  O   -0.792525
     8  C    0.381987
    11  C    0.355023
    14  O   -0.450975
    16  O   -0.279265
    18  C    0.346215
    21  C    0.346965
 Electronic spatial extent (au):  <R**2>=           1958.7286
 Charge=             -0.0000 electrons
 Dipole moment (field-independent basis, Debye):
    X=              4.1290    Y=             -4.5708    Z=              0.3714  Tot=              6.1708
 Quadrupole moment (field-independent basis, Debye-Ang):
   XX=            -63.0941   YY=            -67.2409   ZZ=            -76.3270
   XY=              2.0312   XZ=             -0.6150   YZ=             -0.9962
 Traceless Quadrupole moment (field-independent basis, Debye-Ang):
   XX=              5.7933   YY=              1.6464   ZZ=             -7.4397
   XY=              2.0312   XZ=             -0.6150   YZ=             -0.9962
 Octapole moment (field-independent basis, Debye-Ang**2):
  XXX=             66.3955  YYY=              0.5706  ZZZ=             -4.2317  XYY=             17.4755
  XXY=            -27.8749  XXZ=             13.0073  XZZ=            -10.2294  YZZ=             -1.4635
  YYZ=             -2.7185  XYZ=             -4.9480
 Hexadecapole moment (field-independent basis, Debye-Ang**3):
 XXXX=          -1498.7374 YYYY=           -575.4486 ZZZZ=           -319.3557 XXXY=             26.4152
 XXXZ=            -17.4535 YYYX=             14.7961 YYYZ=             -9.8994 ZZZX=             19.6505
 ZZZY=              2.7386 XXYY=           -295.7883 XXZZ=           -304.9920 YYZZ=           -155.0642
 XXYZ=             -5.7886 YYXZ=             -7.8723 ZZXY=             -6.3718
 N-N= 8.791220948361D+02 E-N=-3.886609285982D+03  KE= 8.971832321828D+02
  Exact polarizability:     114.072      -6.731      94.499       0.711      -2.032      80.757
 Approx polarizability:     116.215      -9.982     103.303       1.851      -5.213      96.916
   1 Symmetry operations used in ECPInt.
 ECPInt:  NShTT=   19306 NPrTT=   52617 LenC2=   18288 LenP2D=   38604.
 LDataN:  DoStor=T MaxTD1= 8 Len=  415
 Calling FoFJK, ICntrl=    100127 FMM=F ISym2X=0 I1Cent= 0 IOpClX= 0 NMat=1 NMatS=1 NMatT=0.
 ***** Axes restored to original set *****
 -------------------------------------------------------------------
 Center     Atomic                   Forces (Hartrees/Bohr)
 Number     Number              X              Y              Z
 -------------------------------------------------------------------
      1       14          -0.008190041    0.015923098    0.003757274
      2        8           0.052083903   -0.038997063    0.015051725
      3        8           0.004042824    0.008351748    0.004064728
      4        1          -0.002522779    0.001166161   -0.001279398
      5        8          -0.001625179   -0.002295837   -0.002452473
      6        1           0.003855097   -0.001700439    0.001731344
      7        8           0.071132391   -0.053834783   -0.016424582
      8        6           0.002386379    0.001052652   -0.002569972
      9        1           0.000178732    0.000219075    0.000323074
     10        1          -0.000337773   -0.000027636    0.000096761
     11        6          -0.000267555   -0.000516713   -0.000004094
     12        1           0.000142257    0.000216257    0.000317384
     13        1          -0.000051727    0.000293582    0.000182348
     14        8          -0.007005780    0.001155167   -0.004662886
     15        1          -0.000678583   -0.002191312   -0.001015388
     16        8          -0.000247954    0.000491847    0.000420970
     17        1          -0.000174366   -0.000311437   -0.000141939
     18        6          -0.061075443    0.039090490    0.024396760
     19        1          -0.004726765   -0.009497478    0.010060573
     20        1           0.004593990    0.013672023    0.006014662
     21        6          -0.090610334    0.047809867   -0.016706558
     22        1           0.047401221    0.003989249   -0.032522159
     23        1          -0.008302517   -0.024058522    0.011361844
 -------------------------------------------------------------------
 Cartesian Forces:  Max     0.090610334 RMS     0.022343345
 FormGI is forming the generalized inverse of G from B-inverse, IUseBI=4.

 GradGradGradGradGradGradGradGradGradGradGradGradGradGradGradGradGradGrad
 Berny optimization.
 Internal  Forces:  Max     0.075573649 RMS     0.013967943
 Search for a saddle point.
 Step number   1 out of a maximum of  119
 All quantities printed in internal units (Hartrees-Bohrs-Radians)
 Swapping is turned off.
 Second derivative matrix not updated -- analytic derivatives used.
 ITU=  0
     Eigenvalues ---   -0.11288  -0.01480  -0.00357   0.00010   0.00188
     Eigenvalues ---    0.00534   0.00839   0.00989   0.01085   0.01612
     Eigenvalues ---    0.01921   0.02208   0.03678   0.03812   0.03874
     Eigenvalues ---    0.04165   0.04760   0.04950   0.05091   0.05273
     Eigenvalues ---    0.05515   0.06473   0.07783   0.07871   0.09057
     Eigenvalues ---    0.09406   0.09904   0.10176   0.10379   0.10814
     Eigenvalues ---    0.11199   0.11558   0.12300   0.12970   0.13878
     Eigenvalues ---    0.16774   0.18431   0.19197   0.24378   0.25364
     Eigenvalues ---    0.25688   0.27185   0.28989   0.29888   0.32925
     Eigenvalues ---    0.33599   0.33802   0.34324   0.35800   0.35985
     Eigenvalues ---    0.37966   0.38472   0.38735   0.39145   0.40079
     Eigenvalues ---    0.44975   0.46476   0.50082   0.52228   0.54974
     Eigenvalues ---    0.77777   2.49311   3.44942
 Eigenvectors required to have negative eigenvalues:
                          R7        R2        A9        A4        R3
   1                   -0.80818   0.36282   0.29388   0.16015  -0.15280
                          A1        A10       D14       A5        D1
   1                   -0.11385  -0.11096   0.10392  -0.08775  -0.08181
 RFO step:  Lambda0=3.854466937D-04 Lambda=-1.15712645D-01.
 Linear search not attempted -- option 19 set.
 Maximum step size (   0.300) exceeded in Quadratic search.
    -- Step size scaled by   0.272
 Iteration  1 RMS(Cart)=  0.03989284 RMS(Int)=  0.00214940
 Iteration  2 RMS(Cart)=  0.00281425 RMS(Int)=  0.00061839
 Iteration  3 RMS(Cart)=  0.00000470 RMS(Int)=  0.00061838
 Iteration  4 RMS(Cart)=  0.00000000 RMS(Int)=  0.00061838
 Variable       Old X    -DE/DX   Delta X   Delta X   Delta X     New X
                                 (Linear)    (Quad)   (Total)
    R1        3.10257   0.00553   0.00000   0.00628   0.00596   3.10852
    R2        3.65087   0.00981   0.00000   0.00031   0.00031   3.65118
    R3        3.01406   0.00305   0.00000  -0.00107  -0.00107   3.01299
    R4        3.10153   0.00664   0.00000   0.00170   0.00131   3.10284
    R5        3.37709  -0.04618   0.00000  -0.21327  -0.21310   3.16399
    R6        1.81171  -0.00128   0.00000  -0.00046  -0.00046   1.81125
    R7        2.10929  -0.00441   0.00000   0.01292   0.01292   2.12221
    R8        3.38099   0.00673   0.00000   0.01790   0.01790   3.39889
    R9        3.25900  -0.07557   0.00000  -0.10986  -0.10943   3.14958
   R10        2.05062   0.00018   0.00000   0.00033   0.00033   2.05095
   R11        2.05959   0.00020   0.00000   0.00008   0.00008   2.05967
   R12        2.88340   0.00018   0.00000   0.00006   0.00006   2.88346
   R13        2.73963  -0.00287   0.00000  -0.00142  -0.00142   2.73821
   R14        2.06447   0.00039   0.00000  -0.00001  -0.00001   2.06446
   R15        2.06270   0.00010   0.00000  -0.00010  -0.00010   2.06260
   R16        2.65386  -0.00577   0.00000   0.00008   0.00008   2.65394
   R17        1.83274  -0.00047   0.00000  -0.00094  -0.00094   1.83180
   R18        1.85097   0.00510   0.00000  -0.00191  -0.00191   1.84906
   R19        2.02201   0.01435   0.00000   0.00527   0.00527   2.02728
   R20        2.02201   0.01180   0.00000   0.00623   0.00623   2.02824
   R21        2.76011   0.02200   0.00000   0.02440   0.02451   2.78462
   R22        2.02201   0.01913   0.00000   0.00630   0.00630   2.02830
   R23        2.02201   0.00872   0.00000   0.01106   0.01106   2.03306
    A1        1.62485   0.00806   0.00000   0.01131   0.01156   1.63642
    A2        2.12065   0.00404   0.00000   0.01366   0.01391   2.13456
    A3        2.00183  -0.01130   0.00000  -0.03315  -0.03364   1.96819
    A4        1.39831  -0.00336   0.00000  -0.00437  -0.00444   1.39386
    A5        1.68849  -0.00262   0.00000   0.00386   0.00396   1.69245
    A6        2.16061   0.00726   0.00000   0.01957   0.01980   2.18040
    A7        1.77528  -0.00712   0.00000   0.00711   0.00670   1.78198
    A8        1.97256  -0.00197   0.00000   0.00267   0.00267   1.97523
    A9        1.22569   0.00191   0.00000  -0.00509  -0.00509   1.22060
   A10        1.94860  -0.00153   0.00000   0.00126   0.00126   1.94986
   A11        2.05201   0.03061   0.00000   0.01640   0.01640   2.06840
   A12        1.65445   0.01100   0.00000   0.00752   0.00777   1.66221
   A13        1.92403   0.00046   0.00000   0.00020   0.00020   1.92423
   A14        1.96667  -0.00110   0.00000  -0.00043  -0.00043   1.96624
   A15        1.86212   0.00274   0.00000  -0.00074  -0.00074   1.86139
   A16        1.94399  -0.00060   0.00000  -0.00032  -0.00032   1.94367
   A17        1.85540  -0.00459   0.00000   0.00047   0.00047   1.85588
   A18        1.90632   0.00307   0.00000   0.00087   0.00087   1.90719
   A19        1.91388   0.00975   0.00000   0.00114   0.00114   1.91502
   A20        1.89964  -0.00324   0.00000   0.00027   0.00027   1.89991
   A21        1.91887  -0.01291   0.00000  -0.00085  -0.00085   1.91801
   A22        1.88996  -0.00134   0.00000   0.00039   0.00039   1.89035
   A23        1.93602   0.00009   0.00000  -0.00061  -0.00061   1.93541
   A24        1.90487   0.00776   0.00000  -0.00030  -0.00030   1.90456
   A25        1.81552   0.00007   0.00000   0.00157   0.00157   1.81709
   A26        1.84403   0.00149   0.00000   0.00021   0.00021   1.84423
   A27        2.65294   0.02648   0.00000  -0.01547  -0.01547   2.63747
   A28        1.76324   0.00744   0.00000   0.02497   0.02460   1.78784
   A29        1.88163  -0.00852   0.00000  -0.00660  -0.00647   1.87516
   A30        2.02499  -0.00921   0.00000  -0.03559  -0.03540   1.98959
   A31        1.91063  -0.00123   0.00000   0.00333   0.00327   1.91390
   A32        1.90469   0.00239   0.00000   0.00769   0.00822   1.91291
   A33        1.96637   0.00904   0.00000   0.00907   0.00824   1.97462
   A34        1.78645   0.01144   0.00000   0.03990   0.04011   1.82656
   A35        2.65164  -0.05204   0.00000  -0.11474  -0.11467   2.53697
   A36        1.35198   0.01903   0.00000   0.08362   0.08653   1.43852
   A37        1.72284   0.02741   0.00000   0.04283   0.04238   1.76522
   A38        2.02460  -0.00733   0.00000  -0.03999  -0.04225   1.98234
   A39        1.91063  -0.00372   0.00000  -0.02967  -0.02750   1.88314
    D1        1.65666   0.00418   0.00000   0.01978   0.01984   1.67651
    D2        3.05821   0.00497   0.00000   0.02090   0.02116   3.07937
    D3       -0.06907   0.00468   0.00000   0.01435   0.01462  -0.05445
    D4        0.22583   0.00537   0.00000   0.01503   0.01524   0.24108
    D5        2.07332   0.00481   0.00000   0.01402   0.01423   2.08755
    D6       -1.89390   0.00250   0.00000   0.00290   0.00290  -1.89100
    D7       -0.04642   0.00194   0.00000   0.00189   0.00189  -0.04452
    D8        2.23862  -0.00513   0.00000  -0.01635  -0.01657   2.22205
    D9       -2.19708  -0.00569   0.00000  -0.01736  -0.01757  -2.21466
   D10        1.94633  -0.00639   0.00000  -0.04184  -0.04198   1.90435
   D11       -2.80853   0.00031   0.00000  -0.03384  -0.03375  -2.84228
   D12       -1.21091  -0.00624   0.00000  -0.03512  -0.03507  -1.24598
   D13        0.33506   0.00598   0.00000   0.00810   0.00843   0.34349
   D14       -1.35025   0.00019   0.00000  -0.00063  -0.00033  -1.35057
   D15       -2.79185   0.00573   0.00000   0.00145   0.00176  -2.79009
   D16       -0.28783  -0.00396   0.00000  -0.02197  -0.02238  -0.31020
   D17       -2.69202  -0.00193   0.00000  -0.00562  -0.00694  -2.69897
   D18        1.70655  -0.01053   0.00000  -0.05740  -0.05364   1.65291
   D19        0.02966  -0.02476   0.00000   0.08861   0.08861   0.11826
   D20       -2.64127  -0.00772   0.00000  -0.01442  -0.01356  -2.65482
   D21        1.63846  -0.00657   0.00000  -0.02681  -0.02578   1.61268
   D22       -0.58493  -0.00435   0.00000  -0.00577  -0.00506  -0.58999
   D23        0.67551   0.00023   0.00000   0.00237   0.00237   0.67788
   D24       -1.38905  -0.00189   0.00000   0.00108   0.00108  -1.38797
   D25        2.80853  -0.00167   0.00000   0.00179   0.00179   2.81032
   D26        2.84830  -0.00046   0.00000   0.00205   0.00205   2.85035
   D27        0.78373  -0.00259   0.00000   0.00076   0.00076   0.78450
   D28       -1.30187  -0.00236   0.00000   0.00148   0.00148  -1.30039
   D29       -1.39073  -0.00454   0.00000   0.00298   0.00298  -1.38775
   D30        2.82789  -0.00667   0.00000   0.00169   0.00169   2.82958
   D31        0.74228  -0.00645   0.00000   0.00241   0.00241   0.74469
   D32       -3.03640  -0.00228   0.00000   0.00150   0.00150  -3.03491
   D33        1.19347  -0.00189   0.00000   0.00139   0.00139   1.19486
   D34       -0.90592  -0.00021   0.00000   0.00103   0.00103  -0.90489
   D35       -1.53195  -0.01477   0.00000  -0.00336  -0.00336  -1.53530
   D36        0.58788  -0.01109   0.00000  -0.00290  -0.00290   0.58498
   D37        2.66882  -0.00778   0.00000  -0.00299  -0.00299   2.66583
   D38        0.72166  -0.03186   0.00000  -0.06011  -0.06011   0.66155
   D39        0.56624   0.01105   0.00000   0.02990   0.03065   0.59689
   D40       -2.90118  -0.02408   0.00000  -0.05108  -0.05081  -2.95199
   D41       -0.86369  -0.01448   0.00000  -0.07633  -0.07559  -0.93928
   D42        2.54270   0.01664   0.00000   0.04565   0.04604   2.58874
   D43       -0.92472  -0.01850   0.00000  -0.03533  -0.03542  -0.96014
   D44        1.11277  -0.00890   0.00000  -0.06058  -0.06020   1.05257
   D45       -1.61439   0.02280   0.00000   0.06138   0.06178  -1.55260
   D46        1.20137  -0.01234   0.00000  -0.01961  -0.01967   1.18170
   D47       -3.04432  -0.00274   0.00000  -0.04486  -0.04446  -3.08878
         Item               Value     Threshold  Converged?
 Maximum Force            0.075574     0.000450     NO 
 RMS     Force            0.013968     0.000300     NO 
 Maximum Displacement     0.223675     0.001800     NO 
 RMS     Displacement     0.040866     0.001200     NO 
 Predicted change in Energy=-3.831066D-02
 GradGradGradGradGradGradGradGradGradGradGradGradGradGradGradGradGradGrad

                          Input orientation:                          
 ---------------------------------------------------------------------
 Center     Atomic      Atomic             Coordinates (Angstroms)
 Number     Number       Type             X           Y           Z
 ---------------------------------------------------------------------
      1         14           0        0.929130   -0.105946   -0.002935
      2          8           0        1.810214   -0.986416   -1.077344
      3          8           0        2.432269    0.984859    0.529803
      4          1           0        3.182113    0.908810   -0.062329
      5          8           0        0.361822    1.342890   -0.351024
      6          1           0        1.622852    1.630327    0.094596
      7          8           0        0.723277   -0.876248    1.432430
      8          6           0       -1.934935   -1.057384    0.206183
      9          1           0       -1.646330   -1.640103    1.075125
     10          1           0       -2.703402   -1.581909   -0.361514
     11          6           0       -2.379111    0.356858    0.567953
     12          1           0       -1.745370    0.749376    1.366567
     13          1           0       -3.407353    0.321316    0.932345
     14          8           0       -0.769965   -0.987844   -0.652654
     15          1           0       -1.034911   -0.382353   -1.361750
     16          8           0       -2.321689    1.181020   -0.567745
     17          1           0       -1.410246    1.536228   -0.590639
     18          6           0        1.999167   -1.928319    1.224859
     19          1           0        1.694160   -2.778413    1.803815
     20          1           0        2.863931   -1.477597    1.673189
     21          6           0        2.218265   -2.335889   -0.174160
     22          1           0        2.924561   -3.134394   -0.049346
     23          1           0        1.340938   -2.741395   -0.646722
 ---------------------------------------------------------------------
                    Distance matrix (angstroms):
                    1          2          3          4          5
     1  Si   0.000000
     2  O    1.644959   0.000000
     3  O    1.932121   2.618358   0.000000
     4  H    2.471678   2.550342   0.958473   0.000000
     5  O    1.594406   2.837437   2.278331   2.868067   0.000000
     6  H    1.872273   2.873307   1.123027   1.725256   1.367989
     7  O    1.641954   2.737249   2.683115   3.386238   2.869831
     8  C    3.025199   3.959624   4.831972   5.488369   3.368514
     9  H    3.185725   4.124091   4.880857   5.577152   3.868439
    10  H    3.937300   4.608661   5.810151   6.397849   4.236762
    11  C    3.388888   4.697003   4.852341   5.623977   3.054422
    12  H    3.124110   4.650576   4.267117   5.132957   2.782559
    13  H    4.456723   5.742127   5.890968   6.689961   4.110636
    14  O    2.021584   2.614898   3.942596   4.423200   2.608495
    15  H    2.404212   2.922417   4.179543   4.597705   2.439036
    16  O    3.541626   4.693623   4.882951   5.533659   2.697110
    17  H    2.918014   4.119706   4.040336   4.665031   1.798616
    18  C    2.444075   2.494598   3.026101   3.332494   3.983103
    19  H    3.315373   3.394966   4.041055   4.392279   4.837726
    20  H    2.904182   2.986135   2.749064   2.967862   4.279385
    21  C    2.581440   1.674312   3.401283   3.386677   4.124449
    22  H    3.627037   2.629136   4.188795   4.051419   5.167660
    23  H    2.744019   1.866978   4.057115   4.129823   4.210403
                    6          7          8          9         10
     6  H    0.000000
     7  O    2.980260   0.000000
     8  C    4.460279   2.933015   0.000000
     9  H    4.727018   2.515189   1.085317   0.000000
    10  H    5.407676   3.931706   1.089930   1.784578   0.000000
    11  C    4.226286   3.448577   1.525861   2.186789   2.174371
    12  H    3.706602   2.956553   2.155645   2.409223   3.055974
    13  H    5.264816   4.329704   2.143861   2.639839   2.406633
    14  O    3.624745   2.567060   1.448997   2.044181   2.043490
    15  H    3.638067   3.338053   1.929799   2.809649   2.285447
    16  O    4.024920   4.183882   2.399791   3.333746   2.796785
    17  H    3.110961   3.803257   2.763522   3.594383   3.383420
    18  C    3.752741   1.666684   4.156126   3.659937   4.975010
    19  H    4.729006   2.167665   4.322579   3.603555   5.045673
    20  H    3.700193   2.236512   5.035652   4.552641   5.928413
    21  C    4.019654   2.635654   4.362145   4.120671   4.982609
    22  H    4.941430   3.484327   5.290932   4.938662   5.846505
    23  H    4.443083   2.860621   3.780831   3.619582   4.216922
                   11         12         13         14         15
    11  C    0.000000
    12  H    1.092466   0.000000
    13  H    1.091479   1.770302   0.000000
    14  O    2.426408   2.836653   3.343940   0.000000
    15  H    2.465170   3.037973   3.374389   0.969347   0.000000
    16  O    1.404404   2.063983   2.041575   2.668151   2.174943
    17  H    1.916233   2.135908   2.789970   2.604755   2.101534
    18  C    4.982256   4.605614   5.863179   3.475290   4.276235
    19  H    5.286664   4.946397   6.032678   3.913092   4.817648
    20  H    5.663591   5.128263   6.566120   4.342188   5.060769
    21  C    5.379358   5.253865   6.319230   3.312960   3.976158
    22  H    6.379564   6.236724   7.280026   4.315226   4.997354
    23  H    4.991330   5.075836   5.866849   2.744246   3.423595
                   16         17         18         19         20
    16  O    0.000000
    17  H    0.978482   0.000000
    18  C    5.617047   5.188758   0.000000
    19  H    6.117879   5.829826   1.072790   0.000000
    20  H    6.243451   5.698828   1.073297   1.754294   0.000000
    21  C    5.756279   5.322860   1.473558   2.093538   2.136877
    22  H    6.812831   6.395174   1.983575   2.252735   2.390769
    23  H    5.367161   5.086278   2.144103   2.476140   3.049374
                   21         22         23
    21  C    0.000000
    22  H    1.073332   0.000000
    23  H    1.075851   1.737576   0.000000
 Stoichiometry    C4H12O6Si
 Framework group  C1[X(C4H12O6Si)]
 Deg. of freedom    63
 Full point group                 C1      NOp   1
 Largest Abelian subgroup         C1      NOp   1
 Largest concise Abelian subgroup C1      NOp   1
                         Standard orientation:                         
 ---------------------------------------------------------------------
 Center     Atomic      Atomic             Coordinates (Angstroms)
 Number     Number       Type             X           Y           Z
 ---------------------------------------------------------------------
      1         14           0        0.474617    0.449361   -0.081089
      2          8           0        1.507148    0.069291   -1.303921
      3          8           0        1.564040    1.913112    0.554273
      4          1           0        2.243946    2.175196   -0.068390
      5          8           0       -0.572352    1.646802   -0.191182
      6          1           0        0.551858    2.290908    0.247766
      7          8           0        0.659091   -0.520465    1.230940
      8          6           0       -1.876955   -1.446527    0.084878
      9          1           0       -1.338467   -1.999971    0.847534
     10          1           0       -2.469607   -2.126503   -0.526960
     11          6           0       -2.737680   -0.329146    0.666999
     12          1           0       -2.207999    0.152375    1.492261
     13          1           0       -3.660414   -0.761784    1.057781
     14          8           0       -0.878460   -0.872468   -0.794357
     15          1           0       -1.389070   -0.310011   -1.396481
     16          8           0       -3.054557    0.601731   -0.335700
     17          1           0       -2.320143    1.248307   -0.337618
     18          6           0        2.191813   -1.034682    0.825751
     19          1           0        2.238681   -2.004028    1.282970
     20          1           0        2.889635   -0.375131    1.305337
     21          6           0        2.417566   -1.160925   -0.624928
     22          1           0        3.358423   -1.677121   -0.644236
     23          1           0        1.690782   -1.779642   -1.121344
 ---------------------------------------------------------------------
 Rotational constants (GHZ):           1.6032259           0.7418733           0.6327173
 Standard basis: def2TZVPP (5D, 7F)
 There are   588 symmetry adapted cartesian basis functions of A   symmetry.
 There are   520 symmetry adapted basis functions of A   symmetry.
   520 basis functions,   783 primitive gaussians,   588 cartesian basis functions
    49 alpha electrons       49 beta electrons
       nuclear repulsion energy       881.7479990010 Hartrees.
 NAtoms=   23 NActive=   23 NUniq=   23 SFac= 1.00D+00 NAtFMM=   60 NAOKFM=F Big=F
 Integral buffers will be    131072 words long.
 Raffenetti 2 integral format.
 Two-electron integral symmetry is turned on.
 Nuclear repulsion after empirical dispersion term =      881.7336277043 Hartrees.
 One-electron integrals computed using PRISM.
   1 Symmetry operations used in ECPInt.
 ECPInt:  NShTT=   19306 NPrTT=   52617 LenC2=   18296 LenP2D=   38663.
 LDataN:  DoStor=T MaxTD1= 6 Len=  172
 NBasis=   520 RedAO= T EigKep=  2.00D-04  NBF=   520
 NBsUse=   520 1.00D-06 EigRej= -1.00D+00 NBFU=   520
 Initial guess from the checkpoint file:  "Convert_EGOHattQ0_toQL_noFreezing_directTSopt.chk"
 B after Tr=    -0.000000   -0.000000   -0.000000
         Rot=    0.999978    0.005889   -0.001832    0.002593 Ang=   0.77 deg.
 ExpMin= 7.01D-02 ExpMax= 4.48D+04 ExpMxC= 1.53D+03 IAcc=3 IRadAn=         5 AccDes= 0.00D+00
 Harris functional with IExCor= 4639 and IRadAn=       5 diagonalized for initial guess.
 HarFok:  IExCor= 4639 AccDes= 0.00D+00 IRadAn=         5 IDoV= 1 UseB2=F ITyADJ=14
 ICtDFT=  3500011 ScaDFX=  1.000000  1.000000  1.000000  1.000000
 FoFCou: FMM=F IPFlag=           0 FMFlag=      100000 FMFlg1=           0
         NFxFlg=           0 DoJE=T BraDBF=F KetDBF=T FulRan=T
         wScrn=  0.000000 ICntrl=       500 IOpCl=  0 I1Cent=   200000004 NGrid=           0
         NMat0=    1 NMatS0=      1 NMatT0=    0 NMatD0=    1 NMtDS0=    0 NMtDT0=    0
 Petite list used in FoFCou.
 Requested convergence on RMS density matrix=1.00D-08 within 128 cycles.
 Requested convergence on MAX density matrix=1.00D-06.
 Requested convergence on             energy=1.00D-06.
 No special actions if energy rises.
 Integral accuracy reduced to 1.0D-05 until final iterations.
 Initial convergence to 1.0D-05 achieved.  Increase integral accuracy.
 SCF Done:  E(RwB97XD) =  -900.585058664     A.U. after   13 cycles
            NFock= 13  Conv=0.54D-08     -V/T= 2.0038
 DoSCS=F DFT=T ScalE2(SS,OS)=  1.000000  1.000000
 Range of M.O.s used for correlation:     1   520
 NBasis=   520 NAE=    49 NBE=    49 NFC=     0 NFV=     0
 NROrb=    520 NOA=    49 NOB=    49 NVA=   471 NVB=   471

 **** Warning!!: The largest alpha MO coefficient is  0.12063443D+02

   1 Symmetry operations used in ECPInt.
 ECPInt:  NShTT=   19306 NPrTT=   52617 LenC2=   18296 LenP2D=   38663.
 LDataN:  DoStor=T MaxTD1= 7 Len=  274
 Symmetrizing basis deriv contribution to polar:
 IMax=3 JMax=2 DiffMx= 0.00D+00
 G2DrvN: will do    24 centers at a time, making    1 passes.
 Calling FoFCou, ICntrl=  3107 FMM=F I1Cent=   0 AccDes= 0.00D+00.
 End of G2Drv F.D. properties file   721 does not exist.
 End of G2Drv F.D. properties file   722 does not exist.
 End of G2Drv F.D. properties file   788 does not exist.
          IDoAtm=11111111111111111111111
          Differentiating once with respect to electric field.
                with respect to dipole field.
          Differentiating once with respect to nuclear coordinates.
 CalDSu exits because no D1Ps are significant.
          There are    72 degrees of freedom in the 1st order CPHF.  IDoFFX=6 NUNeed=     3.
     69 vectors produced by pass  0 Test12= 3.21D-14 1.39D-09 XBig12= 3.91D+01 1.21D+00.
 AX will form    69 AO Fock derivatives at one time.
     69 vectors produced by pass  1 Test12= 3.21D-14 1.39D-09 XBig12= 4.40D+00 2.02D-01.
     69 vectors produced by pass  2 Test12= 3.21D-14 1.39D-09 XBig12= 1.24D-01 4.26D-02.
     69 vectors produced by pass  3 Test12= 3.21D-14 1.39D-09 XBig12= 1.51D-03 4.55D-03.
     69 vectors produced by pass  4 Test12= 3.21D-14 1.39D-09 XBig12= 1.60D-05 3.87D-04.
     69 vectors produced by pass  5 Test12= 3.21D-14 1.39D-09 XBig12= 1.19D-07 3.08D-05.
     69 vectors produced by pass  6 Test12= 3.21D-14 1.39D-09 XBig12= 8.43D-10 3.13D-06.
     27 vectors produced by pass  7 Test12= 3.21D-14 1.39D-09 XBig12= 5.18D-12 2.19D-07.
      3 vectors produced by pass  8 Test12= 3.21D-14 1.39D-09 XBig12= 3.05D-14 1.52D-08.
      2 vectors produced by pass  9 Test12= 3.21D-14 1.39D-09 XBig12= 2.75D-16 1.46D-09.
 InvSVY:  IOpt=1 It=  1 EMax= 2.66D-15
 Solved reduced A of dimension   515 with    72 vectors.
 Isotropic polarizability for W=    0.000000       94.31 Bohr**3.
 End of Minotr F.D. properties file   721 does not exist.
 End of Minotr F.D. properties file   722 does not exist.
 End of Minotr F.D. properties file   788 does not exist.
   1 Symmetry operations used in ECPInt.
 ECPInt:  NShTT=   19306 NPrTT=   52617 LenC2=   18296 LenP2D=   38663.
 LDataN:  DoStor=T MaxTD1= 8 Len=  415
 Calling FoFJK, ICntrl=    100127 FMM=F ISym2X=0 I1Cent= 0 IOpClX= 0 NMat=1 NMatS=1 NMatT=0.
 ***** Axes restored to original set *****
 -------------------------------------------------------------------
 Center     Atomic                   Forces (Hartrees/Bohr)
 Number     Number              X              Y              Z
 -------------------------------------------------------------------
      1       14          -0.008976572    0.017114443    0.001768179
      2        8           0.052619707   -0.038076548    0.018361140
      3        8           0.003664451    0.006378177    0.003519229
      4        1          -0.001994118    0.001007398   -0.001081111
      5        8          -0.001347146   -0.002079975   -0.002452019
      6        1           0.002609586   -0.001068042    0.001177016
      7        8           0.065580915   -0.048035214   -0.018516392
      8        6           0.002162817    0.000784761   -0.002467625
      9        1           0.000102809    0.000129454    0.000284881
     10        1          -0.000382990   -0.000046692    0.000234962
[...]
 9,0.02937953,0.00010139,-0.01518941,-0.00063329,0.00235404,0.00095710,
 0.00200034,-0.00558202,-0.00229518,-0.08238591,0.29514469,0.00601839,0
 .00039918,-0.02301809,0.00754476,-0.00143308,0.00502384,-0.00002392,0.
 00019916,0.00047397,0.00000439,-0.00034947,-0.00008691,-0.00273308,-0.
 00084663,0.00616402,-0.00034126,-0.00015644,0.00071107,-0.01299339,0.0
 0144060,-0.01117800,0.06714207,0.00457486,-0.12907517,0.03097547,0.001
 37550,-0.02139307,-0.00188551,0.00227574,0.00877811,0.02671586,0.00482
 055,-0.01696601,-0.00102246,0.00125624,0.00074102,0.00084682,-0.005096
 04,-0.00048350,-0.00341360,-0.24126479,0.46133855,-0.00456887,0.005777
 80,-0.01127802,-0.00019403,-0.00140245,0.00191962,0.00158798,-0.000720
 34,0.00070968,-0.00003149,-0.00014435,0.00003019,0.00142926,0.00328540
 ,0.00362429,-0.00252667,0.00027045,-0.00060074,-0.00195218,-0.00101524
 ,-0.00176506,0.00689476,-0.02128496,0.03138478,-0.00507244,0.00006146,
 0.00362525,-0.00039994,-0.00106034,0.00006408,-0.00026398,-0.00139966,
 0.00385882,-0.00007803,0.00011088,-0.00061305,0.00003394,0.00013323,-0
 .00033937,-0.08753977,0.09482212,-0.11151316,0.08843089,0.00003686,0.0
 1036945,-0.00320110,-0.00095951,-0.00136353,-0.00009446,0.00245921,-0.
 00130641,0.00088670,0.00008498,0.00003793,0.00013723,0.00337209,-0.001
 34158,0.00277708,-0.00309614,-0.00010754,-0.00084367,-0.00183539,-0.00
 075514,-0.00232118,-0.00229980,-0.00058565,0.00566917,-0.00059015,-0.0
 0024206,-0.00101943,0.00047177,-0.00017350,-0.00003933,0.00168986,0.00
 306807,-0.00509988,0.00006380,-0.00048432,0.00052609,-0.00020956,-0.00
 077498,0.00059604,0.07883666,-0.19632079,0.23061299,-0.07593555,0.1940
 7751,-0.00883490,0.00089248,-0.00370835,0.00046714,-0.00051393,-0.0007
 0187,0.00161856,-0.00069979,0.00067628,-0.00003138,-0.00005010,0.00012
 738,0.00386732,0.00406150,-0.00005971,-0.00223019,0.00036959,-0.000797
 68,-0.00006734,-0.00063058,-0.00018089,-0.00173823,0.01765364,-0.02373
 554,0.00388056,-0.00012654,-0.00097670,-0.00080676,-0.00025363,0.00152
 367,-0.00120477,0.00030749,-0.00182450,0.00018106,0.00000354,-0.000109
 75,-0.00044943,0.00077229,0.00037362,-0.07840871,0.21012714,-0.2843871
 2,0.08530145,-0.23039818,0.31295026,0.00075032,-0.01028145,0.00324362,
 -0.00029361,0.00230271,-0.00030410,-0.00650919,0.00155166,-0.00321017,
 0.00006911,0.00010823,-0.00034769,-0.02446783,0.00292647,-0.00220658,0
 .00607370,0.00159435,0.00298702,-0.00011340,0.00192603,-0.00094138,-0.
 00298516,0.01026052,-0.00051350,0.00091977,0.00130480,0.00064390,0.000
 07874,0.00087336,0.00056635,-0.09528937,-0.02010435,0.00531633,0.00421
 665,0.01610920,-0.01489150,0.00691332,-0.02547647,0.02646351,0.0042822
 2,0.00485630,-0.00550055,0.00033989,-0.00301164,-0.00196350,0.51278666
 ,-0.00415904,-0.00916060,0.00122990,0.00083140,0.00164148,-0.00045620,
 -0.00181401,0.00095877,-0.00109175,-0.00001685,-0.00016279,-0.00008580
 ,-0.00586217,0.00827144,-0.00036013,0.00166277,0.00035259,0.00074603,0
 .00154722,0.00141472,-0.00007676,0.00745848,-0.03783130,0.03983953,0.0
 0259347,-0.00743025,-0.00371417,-0.00088955,0.00275096,-0.00016217,0.0
 1073350,-0.13938997,0.09526018,0.00314841,0.00344365,0.00464085,-0.003
 50929,-0.00862221,0.01283777,0.00180452,0.00164411,0.00345441,-0.00286
 228,0.00093565,0.00124061,0.14508587,0.26117204,-0.00017203,0.00317559
 ,-0.00409623,0.00011631,-0.00085235,0.00074319,0.00212017,-0.00075754,
 0.00096047,0.00009903,-0.00001550,0.00008638,0.00437374,-0.00105925,0.
 00494791,-0.00221468,-0.00029831,-0.00083124,-0.00105394,0.00001299,0.
 00136776,0.00251570,0.01252047,-0.00317293,0.00073448,-0.00047453,0.00
 074346,0.00020273,0.00166062,0.00210803,-0.02958062,0.08299236,-0.1768
 4031,-0.00244401,0.02758206,-0.03087725,0.00100758,0.01670862,-0.01596
 980,0.00052371,-0.00654247,0.00612117,-0.00457320,0.00457345,0.0006995
 3,-0.01531532,-0.17420166,0.25081311,-0.00075007,0.01813378,-0.0049102
 0,0.00017134,-0.00390836,0.00064237,0.00935092,-0.00216152,0.00449479,
 -0.00008248,-0.00006696,0.00043246,0.00986781,-0.00819294,0.00294216,-
 0.00881696,-0.00209993,-0.00392081,-0.00042667,-0.00306852,0.00127388,
 0.00297476,0.00111694,-0.00454406,-0.00068280,0.00105088,0.00041418,-0
 .00038499,-0.00019753,0.00037087,0.00306363,-0.00242489,0.00530464,-0.
 00013022,0.00202809,-0.00368825,0.00141819,0.00154409,-0.00186541,-0.0
 0598897,-0.00171291,0.00064534,0.00330534,0.00039929,0.00038970,-0.406
 81500,-0.15505367,0.04353089,0.39374060,0.00514944,0.00109883,0.000840
 24,-0.00043994,-0.00036052,0.00007376,-0.00117670,0.00049289,-0.000576
 45,-0.00004358,0.00016579,-0.00005462,-0.00398102,-0.00852791,-0.00044
 932,0.00154985,0.00021362,0.00095446,-0.00051663,-0.00009980,-0.000314
 50,-0.00277411,-0.00232684,0.00275793,0.00045115,0.00008980,-0.0002745
 3,0.00009458,0.00020816,0.00007110,-0.02602877,-0.01596938,0.00800167,
 0.00050773,0.00208932,-0.00040996,0.00162435,-0.00095281,0.00056475,-0
 .00060290,0.00087967,-0.00107966,0.00138820,-0.00448268,-0.00268514,-0
 .12929814,-0.08025037,0.03504120,0.15387625,0.10803611,-0.00092793,0.0
 0099066,0.00086947,0.00001150,-0.00018331,-0.00014732,-0.00084329,0.00
 013613,0.00035487,-0.00023606,-0.00000878,-0.00010259,0.00185155,-0.00
 046014,-0.00661173,0.00054998,0.00021924,-0.00039299,0.00024049,-0.000
 19292,-0.00031579,-0.00098034,-0.00015137,0.00039423,0.00023706,0.0000
 0499,-0.00005529,0.00010807,-0.00007784,-0.00023285,0.03434581,0.01984
 288,-0.01282641,0.00114171,-0.00032948,0.00063591,-0.00020493,0.004755
 90,-0.00491945,-0.00001187,0.00001963,-0.00024826,0.00026509,-0.002975
 12,0.00004900,0.00572851,0.02086805,-0.03660912,-0.04128609,-0.0425245
 9,0.06015005,0.00537322,0.01144800,-0.01963738,-0.00333182,0.00410002,
 0.01190220,-0.00519020,-0.00111562,0.00139825,0.00029279,-0.00131119,0
 .00061714,-0.00018370,-0.00242681,0.00348489,0.00168929,0.00035782,0.0
 0019772,-0.11598258,0.07277976,-0.00082737,-0.00054260,0.00034233,-0.0
 0028248,-0.00065648,-0.00039609,0.00006221,0.00027535,-0.00015896,0.00
 025386,-0.00027349,0.00030894,0.00001904,-0.00021548,0.00011818,0.0000
 2684,0.00010300,0.00001188,-0.00001878,0.00054338,-0.00022068,0.001212
 68,0.00041111,0.00000660,-0.00025855,0.00039958,-0.00037041,0.00017673
 ,-0.00043694,0.00013519,-0.00007652,0.55284552,0.00297033,-0.02793827,
 0.04224367,0.00790576,-0.02120952,0.03178523,0.00192072,0.00216823,-0.
 00217489,-0.00030409,0.00084297,-0.00005286,0.00011190,0.00169037,-0.0
 0316186,0.00031329,-0.00005227,0.00020554,0.06635411,-0.16177791,0.007
 25235,0.00113149,0.00037429,-0.00041808,0.00032692,0.00079092,0.000129
 71,-0.00028869,0.00004822,-0.00027521,0.00035320,-0.00004877,0.0008504
 3,0.00016283,-0.00053422,-0.00037749,-0.00030400,-0.00001375,-0.000148
 02,-0.00229226,-0.00072720,-0.00364418,-0.00069011,-0.00035396,0.00012
 525,-0.00046648,0.00025065,-0.00046781,0.00040042,-0.00020671,0.000210
 71,0.07996571,0.53476811,-0.00874816,0.02368026,-0.00735189,0.00611143
 ,0.01375239,-0.03104734,-0.00020199,-0.00059033,-0.00059756,0.00016925
 ,0.00010296,0.00031693,0.00026140,0.00094259,-0.00198869,-0.00020765,0
 .00003544,-0.00019748,0.00418003,-0.00688868,-0.07020196,-0.00018527,-
 0.00000437,0.00037602,0.00002918,-0.00006535,0.00010888,0.00004863,0.0
 0001490,0.00000405,0.00003505,0.00006455,-0.00011798,-0.00011551,0.000
 07642,-0.00003690,0.00003972,-0.00002122,0.00000703,-0.00049843,-0.000
 91080,-0.00137814,0.00012898,0.00000229,-0.00012728,-0.00005827,-0.000
 14030,0.00005920,0.00022536,0.00004643,-0.00002356,0.03412861,-0.07630
 838,0.51029979,-0.00154989,0.00216146,0.00164330,0.00133166,0.00007767
 ,0.00040381,0.00096752,-0.00000281,-0.00015249,-0.00000098,0.00032200,
 -0.00012489,0.00012108,0.00037041,-0.00068793,-0.00040242,-0.00000580,
 -0.00009110,0.00840845,0.02537596,-0.01301333,0.00011026,0.00013484,-0
 .00020395,-0.00000115,-0.00007075,0.00009000,0.00001453,-0.00005003,0.
 00005771,0.00000062,0.00011718,0.00004716,0.00001091,0.00000380,-0.000
 00729,0.00000204,-0.00000761,-0.00000058,-0.00007047,-0.00016814,-0.00
 007827,-0.00001548,0.00003260,0.00000659,-0.00003066,-0.00014107,0.000
 04375,0.00009364,0.00002428,-0.00000169,-0.11324331,-0.09925809,0.0656
 5219,0.11561730,0.00107432,-0.00149688,-0.00566973,-0.00024137,0.00266
 252,-0.00252183,-0.00084216,-0.00038763,0.00046807,0.00001648,-0.00021
 368,-0.00002547,0.00028812,-0.00052076,0.00112146,0.00004821,0.0001505
 7,-0.00005929,0.00104896,-0.03214006,0.01540083,-0.00021812,-0.0001315
 3,0.00031456,0.00007118,-0.00008701,0.00001510,0.00004193,0.00002554,-
 0.00001493,-0.00004622,-0.00011267,-0.00006162,-0.00005087,0.00003555,
 0.00005150,0.00005166,0.00000766,0.00001290,0.00046328,0.00027627,0.00
 020770,0.00001270,-0.00002725,-0.00004247,0.00018272,0.00012605,-0.000
 06911,-0.00028657,0.00000016,-0.00000826,-0.09254685,-0.18583591,0.093
 09171,0.09388158,0.21284042,0.00170238,-0.00197445,-0.00165599,0.00001
 277,0.00209300,-0.00680023,0.00027212,0.00043041,0.00024379,-0.0001189
 7,-0.00006053,-0.00009591,-0.00026277,0.00024491,0.00022629,-0.0000338
 6,-0.00005104,-0.00004535,-0.00184253,-0.00281197,0.00451744,0.0000821
 5,0.00011558,-0.00034908,-0.00009487,0.00006646,0.00010146,-0.00004704
 ,-0.00002110,0.00003125,-0.00002669,0.00010325,0.00008335,0.00000432,-
 0.00002915,-0.00001788,-0.00001245,0.00000371,-0.00000166,-0.00046829,
 -0.00021217,0.00013346,0.00008171,0.00000268,-0.00002278,-0.00007505,-
 0.00012641,0.00004465,0.00013389,0.00001020,-0.00000073,0.06064281,0.0
 9598351,-0.11731293,-0.06543630,-0.10527128,0.12224336,-0.00350167,-0.
 00249711,0.00487902,0.00056424,0.00026089,-0.00101801,0.00133450,0.000
 17766,0.00009710,-0.00006720,0.00024687,-0.00018821,0.00054788,0.00069
 256,-0.00046600,-0.00072784,-0.00003383,-0.00024188,-0.02082571,0.0159
 2594,-0.00968189,0.00033261,0.00003019,0.00006118,0.00013866,0.0000896
 8,0.00001364,-0.00005856,0.00001669,-0.00005213,0.00008004,-0.00009005
 ,0.00012019,0.00002044,-0.00009139,-0.00008364,-0.00006208,0.00000318,
 -0.00002737,-0.00043183,-0.00008782,-0.00071402,-0.00009232,-0.0001083
 1,0.00003516,-0.00008587,0.00016271,-0.00009805,0.00005050,-0.00006721
 ,0.00002737,-0.24026043,-0.05827049,-0.09595192,-0.01160826,-0.0053180
 9,-0.00733560,0.26638632,0.00398012,0.00107830,-0.00326747,-0.00043504
 ,0.00168014,-0.00007872,-0.00086303,0.00046764,-0.00048541,-0.00001268
 ,-0.00009913,0.00006467,-0.00078065,-0.00053419,0.00031995,0.00082703,
 -0.00007602,0.00027409,0.03651823,-0.00629084,0.01534702,-0.00020680,-
 0.00012615,0.00013832,-0.00001349,-0.00012576,-0.00006288,0.00003497,0
 .00000930,0.00001961,-0.00003751,-0.00002057,-0.00020591,0.00000791,0.
 00010094,0.00009053,0.00004818,-0.00000054,0.00004017,0.00061342,0.000
 30863,0.00089651,0.00012324,0.00007677,0.00003039,0.00001307,-0.000023
 03,0.00007930,0.00000310,0.00002364,-0.00002702,-0.06168658,-0.0642503
 1,-0.02487324,-0.02011568,-0.00331358,-0.01070724,0.04798996,0.0735590
 2,-0.00111563,-0.00068261,-0.00044871,0.00125251,0.00135153,0.00135655
 ,0.00072104,-0.00021619,0.00034573,-0.00010682,0.00019845,-0.00019343,
 0.00039976,0.00025365,0.00008732,-0.00056708,0.00003818,-0.00018037,0.
 00118590,0.00237266,0.00554328,0.00010015,0.00003295,-0.00015758,-0.00
 003126,0.00002788,-0.00001639,-0.00000087,-0.00000943,0.00000583,-0.00
 000032,-0.00003178,0.00003576,0.00000648,-0.00000055,0.00000326,-0.000
 00740,0.00001230,0.00000096,-0.00001032,0.00013934,0.00015077,-0.00002
 336,-0.00003962,0.00001275,0.00001398,0.00003777,-0.00000054,-0.000040
 44,-0.00001603,-0.00000147,-0.09542458,-0.02305416,-0.10341522,0.01443
 159,0.00418803,0.00841596,0.10570084,0.02835866,0.10660478,-0.00215858
 ,0.01739542,0.00134948,-0.06863189,-0.00391779,0.00703591,0.00031077,-
 0.00182317,-0.00146671,0.00057126,0.00021257,0.00025157,-0.00146752,0.
 00227685,0.00140358,-0.00093614,0.00002613,-0.00019738,-0.01066782,0.0
 2262822,0.02280627,-0.00048707,-0.00005173,0.00016635,0.00002152,0.000
 05879,0.00015668,-0.00003506,0.00001326,-0.00002674,0.00010247,0.00039
 334,0.00008615,0.00003778,-0.00011963,-0.00008080,-0.00001387,-0.00008
 355,-0.00004089,-0.00166142,-0.00046255,-0.00021538,0.00049644,0.00053
 958,0.00014288,-0.00024370,-0.00046688,0.00000295,0.00055495,0.0001678
 2,0.00006654,-0.08410515,-0.00349128,-0.00540560,-0.00067459,0.0018202
 0,0.01330767,0.00580914,-0.00676103,-0.02793975,0.63022573,0.02912793,
 -0.04412534,-0.01917064,0.00392163,-0.17892785,0.05464268,-0.00048969,
 0.00359431,0.00145878,-0.00107821,-0.00159331,-0.00033620,-0.00357138,
 0.00254333,0.00180348,0.00106753,-0.00051666,0.00011258,0.01382298,-0.
 03104185,-0.01356111,0.00002571,0.00055693,-0.00164820,-0.00013096,0.0
 0005012,0.00046971,-0.00059621,-0.00003940,0.00030638,-0.00022114,0.00
 032441,-0.00013251,0.00004542,0.00001989,-0.00006659,-0.00009902,0.000
 06237,0.00006536,-0.00498324,-0.00311226,0.00253693,0.00107313,-0.0000
 8574,-0.00034155,-0.00075120,-0.00052045,0.00044737,0.00124776,0.00001
 304,-0.00007330,-0.01025597,-0.07414650,-0.01688104,-0.00331000,0.0077
 7861,0.02291285,0.00089717,-0.00330620,-0.01232351,-0.02641792,0.54231
 533,-0.00694240,0.00017912,0.01755314,-0.00079270,0.06706662,-0.102031
 85,-0.00075802,-0.00468818,-0.00378329,0.00105374,0.00102357,0.0002212
 3,0.00253960,-0.00209788,-0.00183262,-0.00044367,0.00054619,-0.0000109
 1,0.01025603,-0.00175214,-0.01303395,-0.00046489,-0.00045010,0.0014947
 9,0.00015628,0.00014281,-0.00010971,0.00025599,0.00008070,-0.00024230,
 0.00022609,-0.00011615,0.00020354,-0.00005653,-0.00010233,-0.00002791,
 0.00007153,-0.00008209,-0.00006978,0.00269066,0.00022598,-0.00149422,-
 0.00031324,0.00002450,-0.00001369,0.00045571,0.00018823,-0.00040286,-0
 .00065781,0.00003738,0.00005212,0.00431546,-0.04049475,-0.16476294,-0.
 00251438,-0.00232290,-0.00981257,0.00395933,-0.00371112,-0.01395932,0.
 01777152,0.06002577,0.43325967,0.00020922,-0.00201899,-0.00070260,0.00
 756839,0.00125880,-0.00197625,0.00013272,0.00018677,0.00006628,-0.0000
 7635,-0.00008072,-0.00002306,0.00008947,0.00018433,-0.00003948,-0.0000
 7864,-0.00003335,-0.00003117,0.00142394,-0.00049317,0.00035297,0.00037
 594,0.00001638,-0.00018188,0.00004019,-0.00000657,-0.00003936,-0.00004
 172,-0.00000353,-0.00000311,-0.00000903,-0.00008694,-0.00000494,0.0000
 1151,0.00000230,-0.00000585,-0.00002962,0.00002629,0.00001070,-0.00019
 060,0.00035808,-0.00008976,-0.00004796,-0.00000363,0.00015975,-0.00007
 502,0.00012820,0.00000857,0.00003399,-0.00005739,-0.00000178,-0.002109
 95,-0.00049367,-0.00211093,0.00006781,0.00039310,0.00046267,0.00124860
 ,-0.00000935,0.00026147,-0.26128277,0.10664948,0.03813127,0.27262021,-
 0.00106707,-0.00003837,0.00395197,0.02544703,-0.02874614,0.00227916,-0
 .00071336,-0.00041920,-0.00046098,0.00022797,-0.00004415,0.00003103,0.
 00060537,-0.00113936,-0.00062214,0.00044473,0.00009501,0.00018179,0.00
 050239,0.00051582,-0.00161353,0.00008742,-0.00000160,0.00017520,0.0000
 2401,-0.00001736,-0.00006309,0.00008206,0.00000719,-0.00004186,-0.0000
 1561,-0.00008241,0.00001872,-0.00001798,0.00001174,0.00002121,0.000016
 78,0.00001071,-0.00000230,0.00067072,0.00076389,-0.00033034,-0.0002516
 3,-0.00003559,0.00001355,0.00015248,0.00011867,-0.00004093,-0.00028181
 ,-0.00002518,-0.00001477,0.00659550,-0.00204076,-0.00301975,0.00023133
 ,-0.00058940,-0.00089636,-0.00028355,0.00033451,0.00012364,0.09870123,
 -0.09831407,-0.02021518,-0.11642126,0.11926367,0.00068883,0.00114358,-
 0.00541546,-0.01695077,0.01887479,0.00170024,-0.00007455,0.00006440,0.
 00028784,-0.00002667,-0.00013642,0.00004486,-0.00036817,0.00049663,0.0
 0074045,-0.00010928,-0.00002454,-0.00007513,0.00263362,-0.00536025,-0.
 00474816,0.00010302,-0.00000381,-0.00023881,-0.00004771,-0.00006993,-0
 .00000735,-0.00002133,-0.00001720,0.00005099,-0.00005735,0.00000463,-0
 .00010669,-0.00001058,0.00006204,0.00002743,0.00000611,0.00001708,0.00
 002185,-0.00023449,0.00011129,0.00032714,0.00010972,0.00004202,0.00007
 492,-0.00005179,-0.00003047,0.00010308,0.00009464,0.00000195,-0.000019
 31,0.02556449,-0.01347869,0.00110068,-0.00011550,0.00086897,-0.0009858
 9,-0.00054680,-0.00040751,0.00132597,0.03973522,-0.02451583,-0.0580126
 4,-0.03937300,0.01788053,0.06018666,-0.00128197,0.00158378,0.00148409,
 0.00703923,-0.00385557,0.00355152,0.00002093,-0.00019973,-0.00006143,0
 .00005000,0.00014277,-0.00000489,0.00018652,-0.00031492,-0.00008855,-0
 .00004151,0.00006218,-0.00001566,0.00051624,-0.00082203,-0.00057544,-0
 .00014818,-0.00011048,0.00015849,0.00007058,-0.00005625,-0.00001398,0.
 00007541,0.00000927,-0.00003739,0.00004177,0.00002991,-0.00000924,-0.0
 0001049,0.00000148,0.00001106,0.00002465,-0.00002459,-0.00001229,-0.00
 005267,0.00116969,-0.00058144,-0.00014645,0.00005638,-0.00005641,0.000
 07883,-0.00001132,-0.00000448,-0.00011055,0.00001755,-0.00000321,0.004
 59887,0.00394249,0.00247390,0.00085138,0.00015582,-0.00094806,0.001208
 83,0.00076260,0.00119410,-0.20576447,-0.10597381,-0.06893955,-0.019880
 33,-0.01473676,-0.01094767,0.21267340,-0.00707511,0.00039827,0.0034081
 2,-0.01842985,-0.03624130,0.00089740,0.00026330,-0.00191981,-0.0009176
 9,0.00043085,0.00043715,0.00010210,0.00134276,0.00007828,-0.00002512,-
 0.00085087,0.00026224,-0.00026648,0.00078142,0.00091150,-0.00027132,0.
 00057235,0.00013043,-0.00025884,0.00002005,-0.00004381,-0.00007812,0.0
 0000149,-0.00000766,-0.00001366,-0.00010925,-0.00023906,0.00002731,-0.
 00000323,0.00003295,0.00003811,-0.00001386,0.00006930,0.00002236,0.000
 45570,0.00087644,0.00015024,-0.00029170,-0.00012466,0.00014444,0.00014
 195,0.00031019,-0.00001459,-0.00034500,-0.00010883,-0.00002130,-0.0056
 8076,-0.00179770,-0.00210647,0.00039688,0.00095302,0.00019513,0.000354
 37,0.00052743,-0.00076114,-0.10063789,-0.12152870,-0.05350806,0.010504
 85,0.01037240,0.00447676,0.11817154,0.14665194,0.00194515,-0.00063742,
 -0.00238545,0.01304192,0.02070244,0.00674732,0.00011694,0.00082469,0.0
 0067326,-0.00019757,-0.00017914,-0.00009931,-0.00019772,0.00006673,0.0
 0011630,0.00011978,-0.00007486,0.00002112,0.00147056,-0.00039571,0.001
 95825,0.00004537,-0.00022197,0.00012791,0.00003454,-0.00004403,-0.0001
 4601,-0.00001186,0.00000762,0.00000445,0.00004486,-0.00006203,-0.00013
 032,0.00000243,0.00002624,0.00000928,-0.00000018,-0.00000948,0.0000054
 0,-0.00004065,0.00027174,-0.00025463,-0.00008444,0.00018177,0.00015845
 ,-0.00003952,0.00010250,0.00000236,0.00001790,-0.00001627,0.00000122,-
 0.02747729,-0.01473002,-0.01371272,0.00005159,0.00032606,0.00105998,0.
 00151168,-0.00183269,-0.00551588,-0.06890951,-0.05573143,-0.08318391,0
 .00512949,0.00264442,0.00361732,0.07342652,0.04878081,0.09092559\\-0.0
 0000195,-0.00000096,-0.00000044,-0.00000053,-0.00000373,-0.00000097,0.
 00000205,-0.00000105,-0.00000462,0.00000105,-0.00000306,-0.00000534,0.
 00000083,-0.00000139,-0.00000284,0.00000136,-0.00000205,-0.00000530,0.
 00000110,0.00000113,-0.00000096,0.00000003,0.00000167,0.00000259,-0.00
 000107,0.00000262,0.00000329,-0.00000132,0.00000122,0.00000417,0.00000
 080,0.00000284,0.00000066,0.00000258,0.00000366,-0.00000069,0.00000134
 ,0.00000420,0.00000166,-0.00000053,-0.00000128,0.00000157,-0.00000136,
 -0.00000135,0.00000086,0.00000074,0.00000083,-0.00000070,0.00000126,0.
 00000018,-0.00000192,0.00000020,0.00000096,0.00000093,-0.00000008,0.00
 000197,0.00000270,0.00000051,0.00000066,-0.00000020,-0.00000212,-0.000
 00221,0.00000100,-0.00000215,-0.00000310,0.00000158,-0.00000274,-0.000
 00175,0.00000298\\\@
 The archive entry for this job was punched.


 AN AIRPLANE IS A COLLECTION OF SPARE PARTS
 FLYING IN CLOSE FORMATION.
 Job cpu time:       0 days  6 hours 34 minutes 40.0 seconds.
 Elapsed time:       0 days  1 hours 38 minutes 48.4 seconds.
 File lengths (MBytes):  RWF=    512 Int=      0 D2E=      0 Chk=     22 Scr=      1
 Normal termination of Gaussian 16 at Wed Feb 21 09:53:26 2024.
