 Entering Gaussian System, Link 0=/opt/software/gaussian/g16.c01/g16
 Initial command:
 /opt/software/gaussian/g16.c01/l1.exe "/scratch/arhender/17893130/Gau-176110.inp" -scrdir="/scratch/arhender/17893130/"
 Entering Link 1 = /opt/software/gaussian/g16.c01/l1.exe PID=    176111.
  
 Copyright (c) 1988-2019, Gaussian, Inc.  All Rights Reserved.
  
 This is part of the Gaussian(R) 16 program.  It is based on
 the Gaussian(R) 09 system (copyright 2009, Gaussian, Inc.),
 the Gaussian(R) 03 system (copyright 2003, Gaussian, Inc.),
 the Gaussian(R) 98 system (copyright 1998, Gaussian, Inc.),
 the Gaussian(R) 94 system (copyright 1995, Gaussian, Inc.),
 the Gaussian 92(TM) system (copyright 1992, Gaussian, Inc.),
 the Gaussian 90(TM) system (copyright 1990, Gaussian, Inc.),
 the Gaussian 88(TM) system (copyright 1988, Gaussian, Inc.),
 the Gaussian 86(TM) system (copyright 1986, Carnegie Mellon
 University), and the Gaussian 82(TM) system (copyright 1983,
 Carnegie Mellon University). Gaussian is a federally registered
 trademark of Gaussian, Inc.
  
 This software contains proprietary and confidential information,
 including trade secrets, belonging to Gaussian, Inc.
  
 This software is provided under written license and may be
 used, copied, transmitted, or stored only in accord with that
 written license.
  
 The following legend is applicable only to US Government
 contracts under FAR:
  
                    RESTRICTED RIGHTS LEGEND
  
 Use, reproduction and disclosure by the US Government is
 subject to restrictions as set forth in subparagraphs (a)
 and (c) of the Commercial Computer Software - Restricted
 Rights clause in FAR 52.227-19.
  
 Gaussian, Inc.
 340 Quinnipiac St., Bldg. 40, Wallingford CT 06492
  
  
 ---------------------------------------------------------------
 Warning -- This program may not be used in any manner that
 competes with the business of Gaussian, Inc. or will provide
 assistance to any competitor of Gaussian, Inc.  The licensee
 of this program is prohibited from giving any competitor of
 Gaussian, Inc. access to this program.  By using this program,
 the user acknowledges that Gaussian, Inc. is engaged in the
 business of creating and licensing software in the field of
 computational chemistry and represents and warrants to the
 licensee that it is not a competitor of Gaussian, Inc. and that
 it will not use this program in any manner prohibited above.
 ---------------------------------------------------------------
  

 Cite this work as:
 Gaussian 16, Revision C.01,
 M. J. Frisch, G. W. Trucks, H. B. Schlegel, G. E. Scuseria, 
 M. A. Robb, J. R. Cheeseman, G. Scalmani, V. Barone, 
 G. A. Petersson, H. Nakatsuji, X. Li, M. Caricato, A. V. Marenich, 
 J. Bloino, B. G. Janesko, R. Gomperts, B. Mennucci, H. P. Hratchian, 
 J. V. Ortiz, A. F. Izmaylov, J. L. Sonnenberg, D. Williams-Young, 
 F. Ding, F. Lipparini, F. Egidi, J. Goings, B. Peng, A. Petrone, 
 T. Henderson, D. Ranasinghe, V. G. Zakrzewski, J. Gao, N. Rega, 
 G. Zheng, W. Liang, M. Hada, M. Ehara, K. Toyota, R. Fukuda, 
 J. Hasegawa, M. Ishida, T. Nakajima, Y. Honda, O. Kitao, H. Nakai, 
 T. Vreven, K. Throssell, J. A. Montgomery, Jr., J. E. Peralta, 
 F. Ogliaro, M. J. Bearpark, J. J. Heyd, E. N. Brothers, K. N. Kudin, 
 V. N. Staroverov, T. A. Keith, R. Kobayashi, J. Normand, 
 K. Raghavachari, A. P. Rendell, J. C. Burant, S. S. Iyengar, 
 J. Tomasi, M. Cossi, J. M. Millam, M. Klene, C. Adamo, R. Cammi, 
 J. W. Ochterski, R. L. Martin, K. Morokuma, O. Farkas, 
 J. B. Foresman, and D. J. Fox, Gaussian, Inc., Wallingford CT, 2019.
 
 ******************************************
 Gaussian 16:  ES64L-G16RevC.01  3-Jul-2019
                17-Mar-2024 
 ******************************************
 %chk=MoveProtonsTryAgain.chk
 %mem=1600MB
 %nprocs=4
 Will use up to    4 processors via shared memory.
 ------------------------------------------------------------------
 # opt=(calcall,ts,noeigen) freq wb97xd/def2tzvpp geom=connectivity
 ------------------------------------------------------------------
 1/5=1,10=4,11=1,18=20,26=3,38=1,57=2/1,3;
 2/9=110,12=2,17=6,18=5,40=1/2;
 3/5=44,7=202,11=2,25=1,30=1,71=2,74=-58,140=1/1,2,3;
 4//1;
 5/5=2,38=5/2;
 8/6=4,10=90,11=11/1;
 11/6=1,8=1,9=11,15=111,16=1/1,2,10;
 10/6=1/2;
 6/7=2,8=2,9=2,10=2,18=1,28=1/1;
 7/10=1,25=1/1,2,3,16;
 1/5=1,10=4,11=1,18=20,26=3/3(3);
 2/9=110/2;
 7/8=1,9=1,25=1,44=-1/16;
 99//99;
 2/9=110/2;
 3/5=44,7=202,11=2,25=1,30=1,71=2,74=-58,140=1/1,2,3;
 4/5=5,16=3,69=1/1;
 5/5=2,38=5/2;
 8/6=4,10=90,11=11/1;
 11/6=1,8=1,9=11,15=111,16=1/1,2,10;
 10/6=1/2;
 7/10=1,25=1/1,2,3,16;
 1/5=1,10=4,11=1,18=20,26=3/3(-8);
 2/9=110/2;
 6/7=2,8=2,9=2,10=2,18=1,19=2,28=1/1;
 7/8=1,9=1,25=1,44=-1/16;
 99//99;
 ---------------------------------------------------------------------
 Convert EGOH attack on Q0 to attack on QbiL direct TS opt no freezing
 ---------------------------------------------------------------------
 Symbolic Z-matrix:
 Charge = -1 Multiplicity = 1
 Si                    0.57431   0.55933  -0.07492 
 O                     1.67752  -0.06432  -1.12559 
 O                     1.55965   2.07873   0.49424 
 H                     2.26799   2.3382   -0.09665 
 O                    -0.52577   1.68124  -0.29326 
 O                     0.78132  -0.46681   1.19087 
 C                    -1.87115  -1.42806  -0.0182 
 H                    -1.33321  -2.06166   0.68314 
 H                    -2.53109  -2.04287  -0.63264 
 C                    -2.65787  -0.3407    0.70251 
 H                    -2.0473    0.08793   1.5026 
 H                    -3.54229  -0.78876   1.15975 
 O                    -0.88547  -0.84826  -0.88708 
 H                    -1.22326   0.34897  -1.26463 
 O                    -3.07061   0.65099  -0.20251 
 H                    -2.32818   1.27575  -0.27248 
 C                     1.91318  -1.2853    0.91218 
 H                     1.74584  -2.28112   1.32252 
 H                     2.79303  -0.85064   1.39439 
 C                     2.09349  -1.32715  -0.61666 
 H                     3.13419  -1.49677  -0.89089 
 H                     1.47631  -2.11247  -1.05922 
 

 GradGradGradGradGradGradGradGradGradGradGradGradGradGradGradGradGradGrad
 Berny optimization.
 Initialization pass.
                           ----------------------------
                           !    Initial Parameters    !
                           ! (Angstroms and Degrees)  !
 --------------------------                            --------------------------
 ! Name  Definition              Value          Derivative Info.                !
 --------------------------------------------------------------------------------
 ! R1    R(1,2)                  1.6462         calculate D2E/DX2 analytically  !
 ! R2    R(1,3)                  1.8983         calculate D2E/DX2 analytically  !
 ! R3    R(1,5)                  1.5864         calculate D2E/DX2 analytically  !
 ! R4    R(1,6)                  1.6426         calculate D2E/DX2 analytically  !
 ! R5    R(2,20)                 1.4236         calculate D2E/DX2 analytically  !
 ! R6    R(3,4)                  0.9582         calculate D2E/DX2 analytically  !
 ! R7    R(5,14)                 1.7903         calculate D2E/DX2 analytically  !
 ! R8    R(6,17)                 1.4243         calculate D2E/DX2 analytically  !
 ! R9    R(7,8)                  1.0875         calculate D2E/DX2 analytically  !
 ! R10   R(7,9)                  1.0914         calculate D2E/DX2 analytically  !
 ! R11   R(7,10)                 1.5234         calculate D2E/DX2 analytically  !
 ! R12   R(7,13)                 1.4362         calculate D2E/DX2 analytically  !
 ! R13   R(10,11)                1.0939         calculate D2E/DX2 analytically  !
 ! R14   R(10,12)                1.0918         calculate D2E/DX2 analytically  !
 ! R15   R(10,15)                1.4046         calculate D2E/DX2 analytically  !
 ! R16   R(13,14)                1.3            calculate D2E/DX2 analytically  !
 ! R17   R(15,16)                0.9728         calculate D2E/DX2 analytically  !
 ! R18   R(17,18)                1.09           calculate D2E/DX2 analytically  !
 ! R19   R(17,19)                1.0934         calculate D2E/DX2 analytically  !
 ! R20   R(17,20)                1.54           calculate D2E/DX2 analytically  !
 ! R21   R(20,21)                1.0895         calculate D2E/DX2 analytically  !
 ! R22   R(20,22)                1.0925         calculate D2E/DX2 analytically  !
 ! A1    A(2,1,3)               98.4377         calculate D2E/DX2 analytically  !
 ! A2    A(2,1,5)              130.1515         calculate D2E/DX2 analytically  !
 ! A3    A(2,1,6)               99.8292         calculate D2E/DX2 analytically  !
 ! A4    A(3,1,5)               80.5114         calculate D2E/DX2 analytically  !
 ! A5    A(3,1,6)              101.7452         calculate D2E/DX2 analytically  !
 ! A6    A(5,1,6)              129.4408         calculate D2E/DX2 analytically  !
 ! A7    A(1,2,20)             107.68           calculate D2E/DX2 analytically  !
 ! A8    A(1,3,4)              114.5543         calculate D2E/DX2 analytically  !
 ! A9    A(1,5,14)              79.5457         calculate D2E/DX2 analytically  !
 ! A10   A(1,6,17)             107.9607         calculate D2E/DX2 analytically  !
 ! A11   A(8,7,9)              109.5102         calculate D2E/DX2 analytically  !
 ! A12   A(8,7,10)             111.4817         calculate D2E/DX2 analytically  !
 ! A13   A(8,7,13)             106.6108         calculate D2E/DX2 analytically  !
 ! A14   A(9,7,10)             110.8662         calculate D2E/DX2 analytically  !
 ! A15   A(9,7,13)             107.5673         calculate D2E/DX2 analytically  !
 ! A16   A(10,7,13)            110.6398         calculate D2E/DX2 analytically  !
 ! A17   A(7,10,11)            109.7223         calculate D2E/DX2 analytically  !
 ! A18   A(7,10,12)            108.8771         calculate D2E/DX2 analytically  !
 ! A19   A(7,10,15)            110.5405         calculate D2E/DX2 analytically  !
 ! A20   A(11,10,12)           107.8566         calculate D2E/DX2 analytically  !
 ! A21   A(11,10,15)           111.0164         calculate D2E/DX2 analytically  !
 ! A22   A(12,10,15)           108.7564         calculate D2E/DX2 analytically  !
 ! A23   A(7,13,14)            111.6639         calculate D2E/DX2 analytically  !
 ! A24   A(5,14,13)            115.2481         calculate D2E/DX2 analytically  !
 ! A25   A(10,15,16)           105.9914         calculate D2E/DX2 analytically  !
 ! A26   A(6,17,18)            109.2295         calculate D2E/DX2 analytically  !
 ! A27   A(6,17,19)            108.9487         calculate D2E/DX2 analytically  !
 ! A28   A(6,17,20)            107.6323         calculate D2E/DX2 analytically  !
 ! A29   A(18,17,19)           108.7046         calculate D2E/DX2 analytically  !
 ! A30   A(18,17,20)           111.5234         calculate D2E/DX2 analytically  !
 ! A31   A(19,17,20)           110.7567         calculate D2E/DX2 analytically  !
 ! A32   A(2,20,17)            107.2516         calculate D2E/DX2 analytically  !
 ! A33   A(2,20,21)            109.1002         calculate D2E/DX2 analytically  !
 ! A34   A(2,20,22)            109.1328         calculate D2E/DX2 analytically  !
 ! A35   A(17,20,21)           111.4656         calculate D2E/DX2 analytically  !
 ! A36   A(17,20,22)           110.8271         calculate D2E/DX2 analytically  !
 ! A37   A(21,20,22)           109.0116         calculate D2E/DX2 analytically  !
 ! D1    D(3,1,2,20)           115.557          calculate D2E/DX2 analytically  !
 ! D2    D(5,1,2,20)          -159.7731         calculate D2E/DX2 analytically  !
 ! D3    D(6,1,2,20)            11.9917         calculate D2E/DX2 analytically  !
 ! D4    D(2,1,3,4)             19.6452         calculate D2E/DX2 analytically  !
 ! D5    D(5,1,3,4)           -109.8575         calculate D2E/DX2 analytically  !
 ! D6    D(6,1,3,4)            121.5984         calculate D2E/DX2 analytically  !
 ! D7    D(2,1,5,14)            70.5624         calculate D2E/DX2 analytically  !
 ! D8    D(3,1,5,14)           163.637          calculate D2E/DX2 analytically  !
 ! D9    D(6,1,5,14)           -98.9077         calculate D2E/DX2 analytically  !
 ! D10   D(2,1,6,17)             8.1748         calculate D2E/DX2 analytically  !
 ! D11   D(3,1,6,17)           -92.6687         calculate D2E/DX2 analytically  !
 ! D12   D(5,1,6,17)          -179.9751         calculate D2E/DX2 analytically  !
 ! D13   D(1,2,20,17)          -26.7603         calculate D2E/DX2 analytically  !
 ! D14   D(1,2,20,21)         -147.6268         calculate D2E/DX2 analytically  !
 ! D15   D(1,2,20,22)           93.3589         calculate D2E/DX2 analytically  !
 ! D16   D(1,5,14,13)           26.7764         calculate D2E/DX2 analytically  !
 ! D17   D(1,6,17,18)         -145.4695         calculate D2E/DX2 analytically  !
 ! D18   D(1,6,17,19)           95.9199         calculate D2E/DX2 analytically  !
 ! D19   D(1,6,17,20)          -24.2323         calculate D2E/DX2 analytically  !
 ! D20   D(8,7,10,11)           42.7666         calculate D2E/DX2 analytically  !
 ! D21   D(8,7,10,12)          -75.0627         calculate D2E/DX2 analytically  !
 ! D22   D(8,7,10,15)          165.5302         calculate D2E/DX2 analytically  !
 ! D23   D(9,7,10,11)          165.0502         calculate D2E/DX2 analytically  !
 ! D24   D(9,7,10,12)           47.2209         calculate D2E/DX2 analytically  !
 ! D25   D(9,7,10,15)          -72.1863         calculate D2E/DX2 analytically  !
 ! D26   D(13,7,10,11)         -75.6915         calculate D2E/DX2 analytically  !
 ! D27   D(13,7,10,12)         166.4792         calculate D2E/DX2 analytically  !
 ! D28   D(13,7,10,15)          47.072          calculate D2E/DX2 analytically  !
 ! D29   D(8,7,13,14)         -146.9924         calculate D2E/DX2 analytically  !
 ! D30   D(9,7,13,14)           95.6197         calculate D2E/DX2 analytically  !
 ! D31   D(10,7,13,14)         -25.6112         calculate D2E/DX2 analytically  !
 ! D32   D(7,10,15,16)         -85.7688         calculate D2E/DX2 analytically  !
 ! D33   D(11,10,15,16)         36.2371         calculate D2E/DX2 analytically  !
 ! D34   D(12,10,15,16)        154.7512         calculate D2E/DX2 analytically  !
 ! D35   D(7,13,14,5)           95.6049         calculate D2E/DX2 analytically  !
 ! D36   D(6,17,20,2)           33.1726         calculate D2E/DX2 analytically  !
 ! D37   D(6,17,20,21)         152.5318         calculate D2E/DX2 analytically  !
 ! D38   D(6,17,20,22)         -85.861          calculate D2E/DX2 analytically  !
 ! D39   D(18,17,20,2)         152.964          calculate D2E/DX2 analytically  !
 ! D40   D(18,17,20,21)        -87.6768         calculate D2E/DX2 analytically  !
 ! D41   D(18,17,20,22)         33.9304         calculate D2E/DX2 analytically  !
 ! D42   D(19,17,20,2)         -85.8294         calculate D2E/DX2 analytically  !
 ! D43   D(19,17,20,21)         33.5298         calculate D2E/DX2 analytically  !
 ! D44   D(19,17,20,22)        155.137          calculate D2E/DX2 analytically  !
 --------------------------------------------------------------------------------
 Trust Radius=3.00D-01 FncErr=1.00D-07 GrdErr=1.00D-06 EigMax=2.50D+02 EigMin=1.00D-04
 Number of steps in this run=    113 maximum allowed number of steps=    132.
 Search for a saddle point of order  1.
 GradGradGradGradGradGradGradGradGradGradGradGradGradGradGradGradGradGrad

                          Input orientation:                          
 ---------------------------------------------------------------------
 Center     Atomic      Atomic             Coordinates (Angstroms)
 Number     Number       Type             X           Y           Z
 ---------------------------------------------------------------------
      1         14           0        0.574308    0.559325   -0.074915
      2          8           0        1.677518   -0.064323   -1.125589
      3          8           0        1.559653    2.078730    0.494241
      4          1           0        2.267992    2.338203   -0.096649
      5          8           0       -0.525768    1.681244   -0.293261
      6          8           0        0.781322   -0.466809    1.190867
      7          6           0       -1.871151   -1.428056   -0.018202
      8          1           0       -1.333208   -2.061664    0.683138
      9          1           0       -2.531090   -2.042874   -0.632642
     10          6           0       -2.657866   -0.340696    0.702514
     11          1           0       -2.047298    0.087930    1.502603
     12          1           0       -3.542294   -0.788758    1.159746
     13          8           0       -0.885472   -0.848259   -0.887079
     14          1           0       -1.223257    0.348970   -1.264629
     15          8           0       -3.070609    0.650990   -0.202510
     16          1           0       -2.328175    1.275745   -0.272475
     17          6           0        1.913178   -1.285296    0.912180
     18          1           0        1.745840   -2.281123    1.322520
     19          1           0        2.793029   -0.850641    1.394393
     20          6           0        2.093491   -1.327152   -0.616662
     21          1           0        3.134191   -1.496773   -0.890885
     22          1           0        1.476310   -2.112466   -1.059216
 ---------------------------------------------------------------------
                    Distance matrix (angstroms):
                    1          2          3          4          5
     1  Si   0.000000
     2  O    1.646185   0.000000
     3  O    1.898272   2.688944   0.000000
     4  H    2.456307   2.679460   0.958239   0.000000
     5  O    1.586362   2.931594   2.264318   2.876690   0.000000
     6  O    1.642562   2.516174   2.751519   3.425781   2.919803
     7  C    3.151693   3.959688   4.932602   5.596728   3.399038
     8  H    3.329091   4.040462   5.054423   5.738949   3.951541
     9  H    4.089743   4.676542   5.915375   6.520147   4.243295
    10  C    3.444036   4.713162   4.866669   5.663854   3.102523
    11  H    3.095738   4.561231   4.241483   5.122798   2.842328
    12  H    4.504234   5.744040   5.890267   6.716832   4.160717
    13  O    2.184459   2.690792   4.056346   4.552214   2.623050
    14  H    2.165851   2.933366   3.718909   4.184500   1.790252
    15  O    3.648301   4.889628   4.895225   5.599871   2.746976
    16  H    2.996113   4.309195   4.043247   4.720644   1.847575
    17  C    2.483859   2.387219   3.408273   3.778012   4.025159
    18  H    3.375419   3.303348   4.441737   4.860541   4.844719
    19  H    3.011576   2.865828   3.303438   3.559157   4.502558
    20  C    2.481975   1.423649   3.622033   3.706169   4.001944
    21  H    3.383245   2.056428   4.145113   4.011004   4.883876
    22  H    2.986791   2.059073   4.470604   4.621877   4.357435
                    6          7          8          9         10
     6  O    0.000000
     7  C    3.069439   0.000000
     8  H    2.696774   1.087529   0.000000
     9  H    4.096491   1.091356   1.779481   0.000000
    10  C    3.475976   1.523386   2.171825   2.167054   0.000000
    11  H    2.899311   2.154551   2.408776   3.055103   1.093918
    12  H    4.335698   2.142191   2.593744   2.409978   1.091803
    13  O    2.691016   1.436202   2.034306   2.049366   2.434298
    14  H    3.273117   2.265209   3.101136   2.798348   2.530493
    15  O    4.245980   2.407302   3.340872   2.780827   1.404588
    16  H    3.853159   2.753918   3.611295   3.344268   1.916294
    17  C    1.424319   3.899633   3.345778   4.765702   4.672330
    18  H    2.058971   3.950681   3.152381   4.708668   4.852040
    19  H    2.058085   4.907485   4.358703   5.820355   5.518242
    20  C    2.393562   4.010826   3.737814   4.679665   5.028789
    21  H    3.306132   5.081313   4.770147   5.697396   6.117463
    22  H    2.872990   3.571781   3.306323   4.030641   4.830556
                   11         12         13         14         15
    11  H    0.000000
    12  H    1.766676   0.000000
    13  O    2.817245   3.354361   0.000000
    14  H    2.899097   3.542592   1.300000   0.000000
    15  O    2.066788   2.037425   2.737007   2.152214   0.000000
    16  H    2.154228   2.790612   2.640175   1.750465   0.972842
    17  C    4.233169   5.483613   3.355708   4.152896   5.461673
    18  H    4.475795   5.497091   3.722799   4.735638   5.841334
    19  H    4.931672   6.339969   4.328567   4.963871   6.259972
    20  C    4.862085   5.933596   3.029304   3.772275   5.545493
    21  H    5.923504   7.020101   4.071643   4.746978   6.601991
    22  H    4.880622   5.644677   2.684374   3.659033   5.389351
                   16         17         18         19         20
    16  H    0.000000
    17  C    5.094253   0.000000
    18  H    5.638521   1.089978   0.000000
    19  H    5.790224   1.093431   1.774274   0.000000
    20  C    5.142438   1.540007   2.188915   2.181916   0.000000
    21  H    6.156844   2.187839   2.727982   2.399244   1.089507
    22  H    5.154905   2.182078   2.402865   3.057147   1.092467
                   21         22
    21  H    0.000000
    22  H    1.776509   0.000000
 Stoichiometry    C4H11O6Si(1-)
 Framework group  C1[X(C4H11O6Si)]
 Deg. of freedom    60
 Full point group                 C1      NOp   1
 Largest Abelian subgroup         C1      NOp   1
 Largest concise Abelian subgroup C1      NOp   1
                         Standard orientation:                         
 ---------------------------------------------------------------------
 Center     Atomic      Atomic             Coordinates (Angstroms)
 Number     Number       Type             X           Y           Z
 ---------------------------------------------------------------------
      1         14           0        0.571408    0.585748   -0.066249
      2          8           0        1.684388   -0.009415   -1.123123
      3          8           0        1.536973    2.108713    0.526792
      4          1           0        2.243379    2.385165   -0.058687
      5          8           0       -0.541754    1.697245   -0.271157
      6          8           0        0.788150   -0.455762    1.185266
      7          6           0       -1.849820   -1.431752   -0.043560
      8          1           0       -1.305729   -2.068735    0.649936
      9          1           0       -2.500906   -2.045696   -0.668235
     10          6           0       -2.651255   -0.364411    0.690735
     11          1           0       -2.047674    0.060125    1.498272
     12          1           0       -3.531155   -0.829647    1.139472
     13          8           0       -0.869390   -0.827701   -0.901787
     14          1           0       -1.220891    0.370610   -1.263031
     15          8           0       -3.074070    0.635013   -0.201030
     16          1           0       -2.339138    1.269661   -0.260356
     17          6           0        1.930474   -1.256401    0.897589
     18          1           0        1.774371   -2.259940    1.293310
     19          1           0        2.803931   -0.818034    1.387997
     20          6           0        2.114585   -1.274242   -0.631269
     21          1           0        3.157861   -1.427297   -0.905451
     22          1           0        1.507957   -2.060586   -1.086404
 ---------------------------------------------------------------------
 Rotational constants (GHZ):           1.5099268           0.7796081           0.6356365
 Standard basis: def2TZVPP (5D, 7F)
 There are   573 symmetry adapted cartesian basis functions of A   symmetry.
 There are   506 symmetry adapted basis functions of A   symmetry.
   506 basis functions,   766 primitive gaussians,   573 cartesian basis functions
    49 alpha electrons       49 beta electrons
       nuclear repulsion energy       862.4951790393 Hartrees.
 NAtoms=   22 NActive=   22 NUniq=   22 SFac= 1.00D+00 NAtFMM=   60 NAOKFM=F Big=F
 Integral buffers will be    131072 words long.
 Raffenetti 2 integral format.
 Two-electron integral symmetry is turned on.
 Nuclear repulsion after empirical dispersion term =      862.4815678740 Hartrees.
 One-electron integrals computed using PRISM.
   1 Symmetry operations used in ECPInt.
 ECPInt:  NShTT=   18145 NPrTT=   50058 LenC2=   17192 LenP2D=   36742.
 LDataN:  DoStor=T MaxTD1= 6 Len=  172
 NBasis=   506 RedAO= T EigKep=  2.12D-04  NBF=   506
 NBsUse=   506 1.00D-06 EigRej= -1.00D+00 NBFU=   506
 ExpMin= 7.01D-02 ExpMax= 4.48D+04 ExpMxC= 1.53D+03 IAcc=3 IRadAn=         5 AccDes= 0.00D+00
 Harris functional with IExCor= 4639 and IRadAn=       5 diagonalized for initial guess.
 HarFok:  IExCor= 4639 AccDes= 0.00D+00 IRadAn=         5 IDoV= 1 UseB2=F ITyADJ=14
 ICtDFT=  3500011 ScaDFX=  1.000000  1.000000  1.000000  1.000000
 FoFCou: FMM=F IPFlag=           0 FMFlag=      100000 FMFlg1=           0
         NFxFlg=           0 DoJE=T BraDBF=F KetDBF=T FulRan=T
         wScrn=  0.000000 ICntrl=       500 IOpCl=  0 I1Cent=   200000004 NGrid=           0
         NMat0=    1 NMatS0=      1 NMatT0=    0 NMatD0=    1 NMtDS0=    0 NMtDT0=    0
 Petite list used in FoFCou.
 Requested convergence on RMS density matrix=1.00D-08 within 128 cycles.
 Requested convergence on MAX density matrix=1.00D-06.
 Requested convergence on             energy=1.00D-06.
 No special actions if energy rises.
 Integral accuracy reduced to 1.0D-05 until final iterations.
 Initial convergence to 1.0D-05 achieved.  Increase integral accuracy.
 SCF Done:  E(RwB97XD) =  -900.078463160     A.U. after   15 cycles
            NFock= 15  Conv=0.63D-08     -V/T= 2.0038
 DoSCS=F DFT=T ScalE2(SS,OS)=  1.000000  1.000000
 Range of M.O.s used for correlation:     1   506
 NBasis=   506 NAE=    49 NBE=    49 NFC=     0 NFV=     0
 NROrb=    506 NOA=    49 NOB=    49 NVA=   457 NVB=   457

 **** Warning!!: The largest alpha MO coefficient is  0.12689873D+02

   1 Symmetry operations used in ECPInt.
 ECPInt:  NShTT=   18145 NPrTT=   50058 LenC2=   17192 LenP2D=   36742.
 LDataN:  DoStor=T MaxTD1= 7 Len=  274
 Symmetrizing basis deriv contribution to polar:
 IMax=3 JMax=2 DiffMx= 0.00D+00
 G2DrvN: will do    23 centers at a time, making    1 passes.
 Calling FoFCou, ICntrl=  3107 FMM=F I1Cent=   0 AccDes= 0.00D+00.
 End of G2Drv F.D. properties file   721 does not exist.
 End of G2Drv F.D. properties file   722 does not exist.
 End of G2Drv F.D. properties file   788 does not exist.
          IDoAtm=1111111111111111111111
          Differentiating once with respect to electric field.
                with respect to dipole field.
          Differentiating once with respect to nuclear coordinates.
 CalDSu exits because no D1Ps are significant.
          There are    69 degrees of freedom in the 1st order CPHF.  IDoFFX=6 NUNeed=     3.
     66 vectors produced by pass  0 Test12= 3.25D-14 1.45D-09 XBig12= 4.20D+01 1.43D+00.
 AX will form    66 AO Fock derivatives at one time.
     66 vectors produced by pass  1 Test12= 3.25D-14 1.45D-09 XBig12= 5.50D+00 3.41D-01.
     66 vectors produced by pass  2 Test12= 3.25D-14 1.45D-09 XBig12= 1.36D-01 5.11D-02.
     66 vectors produced by pass  3 Test12= 3.25D-14 1.45D-09 XBig12= 2.14D-03 6.67D-03.
     66 vectors produced by pass  4 Test12= 3.25D-14 1.45D-09 XBig12= 2.57D-05 6.44D-04.
     66 vectors produced by pass  5 Test12= 3.25D-14 1.45D-09 XBig12= 2.33D-07 5.46D-05.
     66 vectors produced by pass  6 Test12= 3.25D-14 1.45D-09 XBig12= 1.88D-09 4.47D-06.
     29 vectors produced by pass  7 Test12= 3.25D-14 1.45D-09 XBig12= 1.51D-11 3.77D-07.
      3 vectors produced by pass  8 Test12= 3.25D-14 1.45D-09 XBig12= 1.04D-13 3.79D-08.
      2 vectors produced by pass  9 Test12= 3.25D-14 1.45D-09 XBig12= 7.64D-16 4.21D-09.
 InvSVY:  IOpt=1 It=  1 EMax= 3.55D-15
 Solved reduced A of dimension   496 with    69 vectors.
 Isotropic polarizability for W=    0.000000      100.47 Bohr**3.
 End of Minotr F.D. properties file   721 does not exist.
 End of Minotr F.D. properties file   722 does not exist.
 End of Minotr F.D. properties file   788 does not exist.

 **********************************************************************

            Population analysis using the SCF Density.

 **********************************************************************

 Orbital symmetries:
       Occupied  (A) (A) (A) (A) (A) (A) (A) (A) (A) (A) (A) (A)
                 (A) (A) (A) (A) (A) (A) (A) (A) (A) (A) (A) (A)
                 (A) (A) (A) (A) (A) (A) (A) (A) (A) (A) (A) (A)
                 (A) (A) (A) (A) (A) (A) (A) (A) (A) (A) (A) (A)
                 (A)
       Virtual   (A) (A) (A) (A) (A) (A) (A) (A) (A) (A) (A) (A)
                 (A) (A) (A) (A) (A) (A) (A) (A) (A) (A) (A) (A)
                 (A) (A) (A) (A) (A) (A) (A) (A) (A) (A) (A) (A)
                 (A) (A) (A) (A) (A) (A) (A) (A) (A) (A) (A) (A)
                 (A) (A) (A) (A) (A) (A) (A) (A) (A) (A) (A) (A)
                 (A) (A) (A) (A) (A) (A) (A) (A) (A) (A) (A) (A)
                 (A) (A) (A) (A) (A) (A) (A) (A) (A) (A) (A) (A)
                 (A) (A) (A) (A) (A) (A) (A) (A) (A) (A) (A) (A)
                 (A) (A) (A) (A) (A) (A) (A) (A) (A) (A) (A) (A)
                 (A) (A) (A) (A) (A) (A) (A) (A) (A) (A) (A) (A)
                 (A) (A) (A) (A) (A) (A) (A) (A) (A) (A) (A) (A)
                 (A) (A) (A) (A) (A) (A) (A) (A) (A) (A) (A) (A)
                 (A) (A) (A) (A) (A) (A) (A) (A) (A) (A) (A) (A)
                 (A) (A) (A) (A) (A) (A) (A) (A) (A) (A) (A) (A)
                 (A) (A) (A) (A) (A) (A) (A) (A) (A) (A) (A) (A)
                 (A) (A) (A) (A) (A) (A) (A) (A) (A) (A) (A) (A)
                 (A) (A) (A) (A) (A) (A) (A) (A) (A) (A) (A) (A)
                 (A) (A) (A) (A) (A) (A) (A) (A) (A) (A) (A) (A)
                 (A) (A) (A) (A) (A) (A) (A) (A) (A) (A) (A) (A)
                 (A) (A) (A) (A) (A) (A) (A) (A) (A) (A) (A) (A)
                 (A) (A) (A) (A) (A) (A) (A) (A) (A) (A) (A) (A)
                 (A) (A) (A) (A) (A) (A) (A) (A) (A) (A) (A) (A)
                 (A) (A) (A) (A) (A) (A) (A) (A) (A) (A) (A) (A)
                 (A) (A) (A) (A) (A) (A) (A) (A) (A) (A) (A) (A)
                 (A) (A) (A) (A) (A) (A) (A) (A) (A) (A) (A) (A)
                 (A) (A) (A) (A) (A) (A) (A) (A) (A) (A) (A) (A)
                 (A) (A) (A) (A) (A) (A) (A) (A) (A) (A) (A) (A)
                 (A) (A) (A) (A) (A) (A) (A) (A) (A) (A) (A) (A)
                 (A) (A) (A) (A) (A) (A) (A) (A) (A) (A) (A) (A)
                 (A) (A) (A) (A) (A) (A) (A) (A) (A) (A) (A) (A)
                 (A) (A) (A) (A) (A) (A) (A) (A) (A) (A) (A) (A)
                 (A) (A) (A) (A) (A) (A) (A) (A) (A) (A) (A) (A)
                 (A) (A) (A) (A) (A) (A) (A) (A) (A) (A) (A) (A)
                 (A) (A) (A) (A) (A) (A) (A) (A) (A) (A) (A) (A)
                 (A) (A) (A) (A) (A) (A) (A) (A) (A) (A) (A) (A)
                 (A) (A) (A) (A) (A) (A) (A) (A) (A) (A) (A) (A)
                 (A) (A) (A) (A) (A) (A) (A) (A) (A) (A) (A) (A)
                 (A) (A) (A) (A) (A) (A) (A) (A) (A) (A) (A) (A)
                 (A)
 The electronic state is 1-A.
 Alpha  occ. eigenvalues --  -66.12082 -19.11156 -19.09612 -19.09142 -19.09022
 Alpha  occ. eigenvalues --  -19.00224 -18.99233 -10.20542 -10.20356 -10.19537
 Alpha  occ. eigenvalues --  -10.19266  -5.23615  -3.58273  -3.58191  -3.57840
 Alpha  occ. eigenvalues --   -0.99832  -0.98526  -0.94041  -0.93980  -0.84303
 Alpha  occ. eigenvalues --   -0.80264  -0.69584  -0.69336  -0.57661  -0.57150
 Alpha  occ. eigenvalues --   -0.47237  -0.46581  -0.45529  -0.43502  -0.42950
 Alpha  occ. eigenvalues --   -0.41595  -0.38485  -0.37146  -0.36784  -0.35390
 Alpha  occ. eigenvalues --   -0.33797  -0.29190  -0.28337  -0.28018  -0.27612
 Alpha  occ. eigenvalues --   -0.26213  -0.24843  -0.23309  -0.22347  -0.21757
 Alpha  occ. eigenvalues --   -0.19499  -0.18196  -0.16971  -0.11851
 Alpha virt. eigenvalues --    0.22919   0.23572   0.25197   0.26589   0.26984
 Alpha virt. eigenvalues --    0.28429   0.29149   0.30887   0.31721   0.31949
 Alpha virt. eigenvalues --    0.32692   0.33724   0.35111   0.35730   0.36491
 Alpha virt. eigenvalues --    0.38761   0.39081   0.40095   0.40798   0.41400
 Alpha virt. eigenvalues --    0.43692   0.44619   0.45279   0.46772   0.47730
 Alpha virt. eigenvalues --    0.49032   0.49617   0.50414   0.52189   0.53435
 Alpha virt. eigenvalues --    0.54048   0.54923   0.55631   0.57693   0.57827
 Alpha virt. eigenvalues --    0.58439   0.58946   0.59649   0.60048   0.61795
 Alpha virt. eigenvalues --    0.62107   0.62794   0.63847   0.64460   0.65121
 Alpha virt. eigenvalues --    0.65936   0.67047   0.67360   0.68614   0.69905
 Alpha virt. eigenvalues --    0.70546   0.71817   0.72663   0.74608   0.75731
 Alpha virt. eigenvalues --    0.76637   0.77074   0.78535   0.79961   0.81127
 Alpha virt. eigenvalues --    0.81938   0.82764   0.84586   0.85551   0.86969
 Alpha virt. eigenvalues --    0.87218   0.88624   0.89649   0.90930   0.92198
 Alpha virt. eigenvalues --    0.93545   0.94385   0.95573   0.96935   0.98060
 Alpha virt. eigenvalues --    0.99571   1.00674   1.02507   1.03230   1.03925
 Alpha virt. eigenvalues --    1.06278   1.06459   1.07950   1.09220   1.10725
 Alpha virt. eigenvalues --    1.11241   1.12092   1.13078   1.14738   1.16099
 Alpha virt. eigenvalues --    1.16829   1.18195   1.18882   1.20505   1.20845
 Alpha virt. eigenvalues --    1.21609   1.22277   1.23458   1.24601   1.26041
 Alpha virt. eigenvalues --    1.27342   1.28885   1.30484   1.31397   1.32883
 Alpha virt. eigenvalues --    1.33438   1.33910   1.35744   1.37457   1.37565
 Alpha virt. eigenvalues --    1.38093   1.40213   1.40623   1.41411   1.42642
 Alpha virt. eigenvalues --    1.44330   1.44862   1.46369   1.47400   1.48674
 Alpha virt. eigenvalues --    1.49905   1.52340   1.53515   1.54272   1.55629
 Alpha virt. eigenvalues --    1.57688   1.58021   1.58681   1.61030   1.61348
 Alpha virt. eigenvalues --    1.61582   1.63806   1.65071   1.65740   1.66319
 Alpha virt. eigenvalues --    1.68979   1.70809   1.71675   1.73401   1.74860
 Alpha virt. eigenvalues --    1.75337   1.76508   1.77171   1.78718   1.80497
 Alpha virt. eigenvalues --    1.81684   1.83883   1.86066   1.87223   1.90539
 Alpha virt. eigenvalues --    1.92878   1.95800   1.97001   1.99244   2.02997
 Alpha virt. eigenvalues --    2.04361   2.06581   2.08610   2.10539   2.12375
 Alpha virt. eigenvalues --    2.13094   2.15081   2.17478   2.19428   2.20743
 Alpha virt. eigenvalues --    2.23302   2.24064   2.24887   2.25512   2.26909
 Alpha virt. eigenvalues --    2.28465   2.29329   2.30797   2.32368   2.34417
 Alpha virt. eigenvalues --    2.38472   2.39860   2.41943   2.43205   2.45027
 Alpha virt. eigenvalues --    2.45347   2.48143   2.50424   2.51673   2.53639
 Alpha virt. eigenvalues --    2.56245   2.57845   2.58872   2.62587   2.64789
 Alpha virt. eigenvalues --    2.68284   2.68842   2.72977   2.74550   2.76180
 Alpha virt. eigenvalues --    2.77382   2.80323   2.80934   2.82243   2.84018
 Alpha virt. eigenvalues --    2.85310   2.87744   2.89248   2.90715   2.94813
 Alpha virt. eigenvalues --    2.95152   2.96398   2.97932   2.99434   3.01963
 Alpha virt. eigenvalues --    3.03254   3.05258   3.06511   3.07808   3.08363
 Alpha virt. eigenvalues --    3.10709   3.11830   3.13209   3.14794   3.15958
 Alpha virt. eigenvalues --    3.17163   3.18865   3.19810   3.20598   3.21769
 Alpha virt. eigenvalues --    3.23105   3.24226   3.25924   3.27456   3.28858
 Alpha virt. eigenvalues --    3.29444   3.31373   3.33750   3.34811   3.35674
 Alpha virt. eigenvalues --    3.36731   3.39081   3.39641   3.40222   3.41244
 Alpha virt. eigenvalues --    3.43337   3.44860   3.45447   3.46104   3.48027
 Alpha virt. eigenvalues --    3.49164   3.51264   3.52630   3.54029   3.57060
 Alpha virt. eigenvalues --    3.58694   3.59405   3.61530   3.62959   3.64313
 Alpha virt. eigenvalues --    3.66238   3.67477   3.68349   3.71755   3.72716
 Alpha virt. eigenvalues --    3.72869   3.75368   3.77119   3.77830   3.78671
 Alpha virt. eigenvalues --    3.80902   3.82125   3.83220   3.86051   3.87133
 Alpha virt. eigenvalues --    3.88574   3.88655   3.89882   3.90742   3.92606
 Alpha virt. eigenvalues --    3.93122   3.93671   3.95021   3.96530   3.97388
 Alpha virt. eigenvalues --    3.99385   4.00306   4.02753   4.04367   4.07600
 Alpha virt. eigenvalues --    4.08272   4.08737   4.10919   4.14565   4.15212
 Alpha virt. eigenvalues --    4.17529   4.18234   4.18714   4.19804   4.20749
 Alpha virt. eigenvalues --    4.22435   4.23940   4.26255   4.27565   4.29697
 Alpha virt. eigenvalues --    4.30880   4.32803   4.33370   4.35383   4.35872
 Alpha virt. eigenvalues --    4.37540   4.38622   4.40972   4.42694   4.43479
 Alpha virt. eigenvalues --    4.44067   4.45140   4.47343   4.47691   4.50534
 Alpha virt. eigenvalues --    4.51896   4.53893   4.54947   4.55412   4.59250
 Alpha virt. eigenvalues --    4.61023   4.62166   4.64003   4.70626   4.71604
 Alpha virt. eigenvalues --    4.75842   4.78007   4.78776   4.79089   4.83968
 Alpha virt. eigenvalues --    4.85127   4.87341   4.88751   4.91204   4.94645
 Alpha virt. eigenvalues --    4.97077   4.98719   4.99145   5.01293   5.02156
 Alpha virt. eigenvalues --    5.03942   5.04684   5.09393   5.10269   5.11980
 Alpha virt. eigenvalues --    5.13922   5.16799   5.18640   5.19572   5.22730
 Alpha virt. eigenvalues --    5.25696   5.26598   5.28110   5.28554   5.33935
 Alpha virt. eigenvalues --    5.35063   5.35971   5.36473   5.40232   5.45554
 Alpha virt. eigenvalues --    5.48260   5.50424   5.51231   5.52381   5.53647
 Alpha virt. eigenvalues --    5.54577   5.56150   5.57757   5.58621   5.59744
 Alpha virt. eigenvalues --    5.61986   5.63691   5.65386   5.66991   5.67830
 Alpha virt. eigenvalues --    5.68351   5.69882   5.72194   5.73984   5.75588
 Alpha virt. eigenvalues --    5.77236   5.78442   5.78607   5.82002   5.83402
 Alpha virt. eigenvalues --    5.83949   5.85722   5.86312   5.91777   5.92587
 Alpha virt. eigenvalues --    5.96205   5.97275   5.99428   6.04943   6.11219
 Alpha virt. eigenvalues --    6.11413   6.12561   6.18501   6.21911   6.26550
 Alpha virt. eigenvalues --    6.27671   6.29461   6.33441   6.35117   6.42175
 Alpha virt. eigenvalues --    6.46129   6.68656   6.71447   6.74018   6.79108
 Alpha virt. eigenvalues --    6.82089   6.82949   6.86488   6.89158   6.90498
 Alpha virt. eigenvalues --    6.93605   6.94544   6.96754   6.97458   7.01375
 Alpha virt. eigenvalues --    7.01890   7.02853   7.03131   7.05237   7.07695
 Alpha virt. eigenvalues --    7.12393   7.15967   7.19182   7.21219   7.23126
 Alpha virt. eigenvalues --    7.26532   7.27898   7.30806   7.33574   7.34284
 Alpha virt. eigenvalues --    7.38835   7.46666   7.47582   7.51880   7.57233
 Alpha virt. eigenvalues --    7.65057   7.71870   7.72888   7.77651   7.80416
 Alpha virt. eigenvalues --    7.91563  13.11297  23.52495  23.53329  23.58121
 Alpha virt. eigenvalues --   23.63028  44.04530  44.11107  44.31114  44.36422
 Alpha virt. eigenvalues --   44.42594  44.47703
          Condensed to atoms (all electrons):
               1          2          3          4          5          6
     1  Si  11.637206   0.352870   0.421828  -0.044744   0.548253   0.320477
     2  O    0.352870   7.977486  -0.041420  -0.000426  -0.019022  -0.006522
     3  O    0.421828  -0.041420   8.072144   0.294974  -0.140372  -0.027405
     4  H   -0.044744  -0.000426   0.294974   0.636563   0.010493   0.001397
     5  O    0.548253  -0.019022  -0.140372   0.010493   8.233588  -0.025455
     6  O    0.320477  -0.006522  -0.027405   0.001397  -0.025455   7.994949
     7  C   -0.017486   0.002371   0.000284  -0.000083  -0.010963   0.010459
     8  H   -0.007732   0.000647  -0.000007   0.000004  -0.000535   0.011220
     9  H   -0.000087  -0.000131   0.000005  -0.000002  -0.000202   0.000719
    10  C    0.022361  -0.001143  -0.000274   0.000030   0.024349  -0.015230
    11  H   -0.013960  -0.000098   0.000277  -0.000021  -0.000053   0.007654
    12  H    0.000573  -0.000006  -0.000004   0.000001   0.000288  -0.000048
    13  O    0.119175  -0.025220  -0.000067   0.000157  -0.067789  -0.027526
    14  H   -0.005833  -0.001004   0.001039  -0.000825   0.094613   0.002266
    15  O   -0.006153   0.000025  -0.000098   0.000016  -0.044772   0.000080
    16  H   -0.004306   0.000178   0.000637  -0.000096   0.073269   0.000497
    17  C   -0.065966  -0.068352  -0.005818  -0.002851  -0.002916   0.311158
    18  H    0.006615   0.005404   0.000016   0.000075  -0.000024  -0.045261
    19  H    0.007164   0.003820   0.007529   0.000333   0.000149  -0.043419
    20  C   -0.064947   0.309684  -0.006029   0.001271  -0.000957  -0.069111
    21  H   -0.001682  -0.037231  -0.000153  -0.000082  -0.000035   0.004429
    22  H   -0.005746  -0.046342  -0.000169  -0.000019   0.000239   0.007012
               7          8          9         10         11         12
     1  Si  -0.017486  -0.007732  -0.000087   0.022361  -0.013960   0.000573
     2  O    0.002371   0.000647  -0.000131  -0.001143  -0.000098  -0.000006
     3  O    0.000284  -0.000007   0.000005  -0.000274   0.000277  -0.000004
     4  H   -0.000083   0.000004  -0.000002   0.000030  -0.000021   0.000001
     5  O   -0.010963  -0.000535  -0.000202   0.024349  -0.000053   0.000288
     6  O    0.010459   0.011220   0.000719  -0.015230   0.007654  -0.000048
     7  C    4.871837   0.399596   0.388211   0.245295  -0.065505  -0.045988
     8  H    0.399596   0.672508  -0.049454  -0.035698  -0.002890   0.008286
     9  H    0.388211  -0.049454   0.664899  -0.025056   0.010531  -0.011810
    10  C    0.245295  -0.035698  -0.025056   4.744549   0.443747   0.390314
    11  H   -0.065505  -0.002890   0.010531   0.443747   0.626206  -0.036033
    12  H   -0.045988   0.008286  -0.011810   0.390314  -0.036033   0.681978
    13  O    0.258827  -0.046828  -0.037289  -0.062714   0.003315   0.005730
    14  H   -0.021645   0.008622  -0.001513  -0.016136   0.004192   0.000240
    15  O   -0.070430   0.006407   0.005337   0.282745  -0.046303  -0.034124
    16  H    0.006699  -0.001245  -0.000902  -0.040287  -0.009982   0.005476
    17  C    0.002582  -0.006197   0.000559  -0.001497   0.000420  -0.000079
    18  H    0.000721  -0.001201  -0.000158   0.000290  -0.000285  -0.000006
    19  H   -0.000158   0.000273   0.000012  -0.000008  -0.000017   0.000003
    20  C   -0.001480   0.001892   0.000128  -0.000477   0.000323   0.000048
    21  H    0.000060   0.000035  -0.000015  -0.000004  -0.000010  -0.000000
    22  H   -0.001360  -0.000509  -0.000018   0.000902  -0.000034  -0.000006
              13         14         15         16         17         18
     1  Si   0.119175  -0.005833  -0.006153  -0.004306  -0.065966   0.006615
     2  O   -0.025220  -0.001004   0.000025   0.000178  -0.068352   0.005404
     3  O   -0.000067   0.001039  -0.000098   0.000637  -0.005818   0.000016
     4  H    0.000157  -0.000825   0.000016  -0.000096  -0.002851   0.000075
     5  O   -0.067789   0.094613  -0.044772   0.073269  -0.002916  -0.000024
     6  O   -0.027526   0.002266   0.000080   0.000497   0.311158  -0.045261
     7  C    0.258827  -0.021645  -0.070430   0.006699   0.002582   0.000721
     8  H   -0.046828   0.008622   0.006407  -0.001245  -0.006197  -0.001201
     9  H   -0.037289  -0.001513   0.005337  -0.000902   0.000559  -0.000158
    10  C   -0.062714  -0.016136   0.282745  -0.040287  -0.001497   0.000290
    11  H    0.003315   0.004192  -0.046303  -0.009982   0.000420  -0.000285
    12  H    0.005730   0.000240  -0.034124   0.005476  -0.000079  -0.000006
    13  O    8.126648   0.188879  -0.004157  -0.003400   0.007276  -0.000031
    14  H    0.188879   0.483265   0.021820   0.003723   0.000240   0.000035
    15  O   -0.004157   0.021820   7.980626   0.336718   0.000040   0.000000
    16  H   -0.003400   0.003723   0.336718   0.417442   0.000121  -0.000003
    17  C    0.007276   0.000240   0.000040   0.000121   4.796356   0.371626
    18  H   -0.000031   0.000035   0.000000  -0.000003   0.371626   0.716429
    19  H   -0.000003   0.000001   0.000001   0.000001   0.402677  -0.060275
    20  C   -0.002575  -0.001611   0.000061  -0.000105   0.278506  -0.023473
    21  H    0.000274  -0.000141   0.000000   0.000000  -0.006650   0.008879
    22  H    0.011127   0.000398  -0.000020   0.000016  -0.054451  -0.015076
              19         20         21         22
     1  Si   0.007164  -0.064947  -0.001682  -0.005746
     2  O    0.003820   0.309684  -0.037231  -0.046342
     3  O    0.007529  -0.006029  -0.000153  -0.000169
     4  H    0.000333   0.001271  -0.000082  -0.000019
     5  O    0.000149  -0.000957  -0.000035   0.000239
     6  O   -0.043419  -0.069111   0.004429   0.007012
     7  C   -0.000158  -0.001480   0.000060  -0.001360
     8  H    0.000273   0.001892   0.000035  -0.000509
     9  H    0.000012   0.000128  -0.000015  -0.000018
    10  C   -0.000008  -0.000477  -0.000004   0.000902
    11  H   -0.000017   0.000323  -0.000010  -0.000034
    12  H    0.000003   0.000048  -0.000000  -0.000006
    13  O   -0.000003  -0.002575   0.000274   0.011127
    14  H    0.000001  -0.001611  -0.000141   0.000398
    15  O    0.000001   0.000061   0.000000  -0.000020
    16  H    0.000001  -0.000105   0.000000   0.000016
    17  C    0.402677   0.278506  -0.006650  -0.054451
    18  H   -0.060275  -0.023473   0.008879  -0.015076
    19  H    0.671752  -0.037849  -0.017151   0.012836
    20  C   -0.037849   4.756942   0.377360   0.424625
    21  H   -0.017151   0.377360   0.693905  -0.062674
    22  H    0.012836   0.424625  -0.062674   0.686301
 Mulliken charges:
               1
     1  Si   0.802122
     2  O   -0.405567
     3  O   -0.576916
     4  H    0.103836
     5  O   -0.672145
     6  O   -0.412340
     7  C    0.048157
     8  H    0.042807
     9  H    0.056235
    10  C    0.043943
    11  H    0.078526
    12  H    0.035165
    13  O   -0.443808
    14  H    0.239376
    15  O   -0.427818
    16  H    0.215549
    17  C    0.043219
    18  H    0.035703
    19  H    0.052328
    20  C    0.057773
    21  H    0.040885
    22  H    0.042969
 Sum of Mulliken charges =  -1.00000
 Mulliken charges with hydrogens summed into heavy atoms:
               1
     1  Si   0.802122
     2  O   -0.405567
     3  O   -0.473080
     5  O   -0.672145
     6  O   -0.412340
     7  C    0.147199
    10  C    0.157634
    13  O   -0.204432
    15  O   -0.212269
    17  C    0.131250
    20  C    0.141627
 APT charges:
               1
     1  Si   2.134393
     2  O   -0.927137
     3  O   -0.892246
     4  H    0.145051
     5  O   -1.038835
     6  O   -0.930501
     7  C    0.418561
     8  H   -0.042194
     9  H   -0.101204
    10  C    0.409187
    11  H   -0.025519
    12  H   -0.072715
    13  O   -0.895486
    14  H    0.527279
    15  O   -0.752766
    16  H    0.408124
    17  C    0.478567
    18  H   -0.070738
    19  H   -0.075875
    20  C    0.439643
    21  H   -0.072941
    22  H   -0.062649
 Sum of APT charges =  -1.00000
 APT charges with hydrogens summed into heavy atoms:
               1
     1  Si   2.134393
     2  O   -0.927137
     3  O   -0.747195
     5  O   -1.038835
     6  O   -0.930501
     7  C    0.275163
    10  C    0.310954
    13  O   -0.368207
    15  O   -0.344642
    17  C    0.331954
    20  C    0.304053
 Electronic spatial extent (au):  <R**2>=           1958.0203
 Charge=             -1.0000 electrons
 Dipole moment (field-independent basis, Debye):
    X=              0.8308    Y=             -7.0135    Z=              0.0381  Tot=              7.0626
 Quadrupole moment (field-independent basis, Debye-Ang):
   XX=            -88.4767   YY=            -89.0323   ZZ=            -81.1071
   XY=             -1.3932   XZ=             -3.9218   YZ=             -4.6154
 Traceless Quadrupole moment (field-independent basis, Debye-Ang):
   XX=             -2.2714   YY=             -2.8269   ZZ=              5.0983
   XY=             -1.3932   XZ=             -3.9218   YZ=             -4.6154
 Octapole moment (field-independent basis, Debye-Ang**2):
  XXX=             46.9263  YYY=            -24.8410  ZZZ=             -3.5809  XYY=             -2.3075
  XXY=            -15.6488  XXZ=              4.3867  XZZ=             -8.4811  YZZ=              2.5347
  YYZ=             -7.9377  XYZ=             -6.5592
 Hexadecapole moment (field-independent basis, Debye-Ang**3):
 XXXX=          -1662.3307 YYYY=           -773.7952 ZZZZ=           -331.2920 XXXY=             44.0328
 XXXZ=            -23.1428 YYYX=             -7.9444 YYYZ=            -22.7530 ZZZX=              5.1305
 ZZZY=             -3.4143 XXYY=           -370.4207 XXZZ=           -316.5314 YYZZ=           -179.6837
 XXYZ=            -12.8883 YYXZ=            -18.2524 ZZXY=             -8.2345
 N-N= 8.624815678740D+02 E-N=-3.869060834560D+03  KE= 8.967020796670D+02
  Exact polarizability:     112.032       2.761     104.946       0.199      -0.617      84.445
 Approx polarizability:     106.757       1.717     115.233      -0.130      -1.014      97.943
   1 Symmetry operations used in ECPInt.
 ECPInt:  NShTT=   18145 NPrTT=   50058 LenC2=   17192 LenP2D=   36742.
 LDataN:  DoStor=T MaxTD1= 8 Len=  415
 Calling FoFJK, ICntrl=    100127 FMM=F ISym2X=0 I1Cent= 0 IOpClX= 0 NMat=1 NMatS=1 NMatT=0.
 ***** Axes restored to original set *****
 -------------------------------------------------------------------
 Center     Atomic                   Forces (Hartrees/Bohr)
 Number     Number              X              Y              Z
 -------------------------------------------------------------------
      1       14           0.023242466    0.101851032    0.019824404
      2        8           0.010178204   -0.022440604   -0.007886959
      3        8           0.020806479   -0.032714900    0.004134694
      4        1          -0.002173658   -0.006251573    0.001690320
      5        8          -0.058044877   -0.046505395   -0.037029684
      6        8           0.008513745   -0.020271636    0.009647346
      7        6           0.014009803    0.016835195   -0.017398059
      8        1          -0.000023637   -0.001547192    0.003803638
      9        1          -0.003132720   -0.001114340   -0.000469134
     10        6          -0.000361663   -0.000089198   -0.000770198
     11        1           0.000874260    0.000449685   -0.001094232
     12        1          -0.002435380   -0.000115722    0.000695262
     13        8          -0.022206976    0.053324406   -0.021173483
     14        1           0.023427877   -0.056182261    0.040693734
     15        8          -0.012666012   -0.002939818    0.004588636
     16        1           0.010326665    0.005021179    0.002668852
     17        6          -0.008853275    0.007045552    0.001479605
     18        1           0.000032263   -0.002691052    0.000506195
     19        1           0.001339726    0.001053361   -0.000284213
     20        6          -0.004227317    0.010156577   -0.003734096
     21        1           0.002359245   -0.000765414   -0.000129617
     22        1          -0.000985218   -0.002107882    0.000236990
 -------------------------------------------------------------------
 Cartesian Forces:  Max     0.101851032 RMS     0.021883065
 FormGI is forming the generalized inverse of G from B-inverse, IUseBI=4.

 GradGradGradGradGradGradGradGradGradGradGradGradGradGradGradGradGradGrad
 Berny optimization.
 Internal  Forces:  Max     0.076812142 RMS     0.014055440
 Search for a saddle point.
 Step number   1 out of a maximum of  113
 All quantities printed in internal units (Hartrees-Bohrs-Radians)
 Swapping is turned off.
 Second derivative matrix not updated -- analytic derivatives used.
 ITU=  0
     Eigenvalues ---   -0.07358  -0.00593  -0.00221   0.00283   0.00373
     Eigenvalues ---    0.00710   0.01113   0.01222   0.01880   0.02390
     Eigenvalues ---    0.04475   0.04569   0.04764   0.04885   0.04910
     Eigenvalues ---    0.05658   0.05871   0.06008   0.06176   0.06797
     Eigenvalues ---    0.08428   0.09292   0.09583   0.09669   0.09958
     Eigenvalues ---    0.10300   0.10423   0.11367   0.12342   0.13698
     Eigenvalues ---    0.14818   0.16138   0.17970   0.20172   0.22132
     Eigenvalues ---    0.22770   0.23716   0.25418   0.25594   0.27400
     Eigenvalues ---    0.27924   0.28327   0.29909   0.31596   0.32433
     Eigenvalues ---    0.32923   0.33081   0.33358   0.33464   0.33526
     Eigenvalues ---    0.34802   0.34924   0.37448   0.37996   0.42388
     Eigenvalues ---    0.44082   0.48509   0.54484   0.85856   0.98246
 Eigenvectors required to have negative eigenvalues:
                          R7        R16       D9        D2        D12
   1                   -0.71199   0.59862  -0.13371  -0.12379   0.11726
                          A23       D16       R3        D7        A24
   1                    0.10192  -0.10031   0.08734   0.08571  -0.08564
 RFO step:  Lambda0=2.425571883D-02 Lambda=-8.94911569D-02.
 Linear search not attempted -- option 19 set.
 Maximum step size (   0.300) exceeded in Quadratic search.
    -- Step size scaled by   0.296
 Iteration  1 RMS(Cart)=  0.07484682 RMS(Int)=  0.00606759
 Iteration  2 RMS(Cart)=  0.01019290 RMS(Int)=  0.00024727
 Iteration  3 RMS(Cart)=  0.00004417 RMS(Int)=  0.00024646
 Iteration  4 RMS(Cart)=  0.00000000 RMS(Int)=  0.00024646
 Variable       Old X    -DE/DX   Delta X   Delta X   Delta X     New X
                                 (Linear)    (Quad)   (Total)
    R1        3.11084   0.01542   0.00000   0.01612   0.01622   3.12706
    R2        3.58721  -0.01977   0.00000  -0.09034  -0.09034   3.49688
    R3        2.99779   0.01509   0.00000   0.01418   0.01418   3.01197
    R4        3.10399   0.01579   0.00000   0.01346   0.01356   3.11756
    R5        2.69031  -0.00746   0.00000  -0.00762  -0.00760   2.68270
    R6        1.81081  -0.00434   0.00000  -0.00264  -0.00264   1.80817
    R7        3.38309  -0.01945   0.00000  -0.25723  -0.25723   3.12585
    R8        2.69157  -0.00796   0.00000  -0.00713  -0.00714   2.68443
    R9        2.05513   0.00334   0.00000   0.00436   0.00436   2.05950
   R10        2.06236   0.00279   0.00000   0.00324   0.00324   2.06560
   R11        2.87878   0.00674   0.00000   0.00147   0.00147   2.88026
   R12        2.71403  -0.01600   0.00000  -0.01494  -0.01494   2.69909
   R13        2.06720  -0.00014   0.00000   0.00042   0.00042   2.06762
   R14        2.06321   0.00231   0.00000   0.00187   0.00187   2.06508
   R15        2.65429  -0.00252   0.00000   0.00070   0.00070   2.65498
   R16        2.45664  -0.07681   0.00000  -0.02138  -0.02138   2.43527
   R17        1.83841   0.01091   0.00000  -0.00235  -0.00235   1.83606
   R18        2.05976   0.00264   0.00000   0.00225   0.00225   2.06201
   R19        2.06629   0.00137   0.00000   0.00182   0.00182   2.06810
   R20        2.91019   0.00291   0.00000   0.00294   0.00272   2.91292
   R21        2.05887   0.00241   0.00000   0.00203   0.00203   2.06090
   R22        2.06446   0.00197   0.00000   0.00182   0.00182   2.06628
    A1        1.71806  -0.02113   0.00000  -0.01854  -0.01887   1.69919
    A2        2.27157   0.00419   0.00000   0.02248   0.02188   2.29345
    A3        1.74235  -0.00423   0.00000  -0.00469  -0.00487   1.73748
    A4        1.40519   0.06143   0.00000   0.05577   0.05591   1.46110
    A5        1.77579  -0.02797   0.00000   0.00459   0.00504   1.78083
    A6        2.25917  -0.00397   0.00000  -0.02571  -0.02647   2.23270
    A7        1.87937  -0.00118   0.00000  -0.00204  -0.00197   1.87740
    A8        1.99935  -0.00761   0.00000  -0.00704  -0.00704   1.99230
    A9        1.38833   0.02599   0.00000   0.03220   0.03220   1.42054
   A10        1.88427  -0.00160   0.00000   0.00076   0.00085   1.88512
   A11        1.91131   0.00190   0.00000  -0.00174  -0.00186   1.90945
   A12        1.94572  -0.00909   0.00000  -0.01110  -0.01116   1.93457
   A13        1.86071  -0.00103   0.00000   0.00164   0.00170   1.86241
   A14        1.93498   0.00055   0.00000  -0.00835  -0.00845   1.92653
   A15        1.87740  -0.00397   0.00000   0.00650   0.00652   1.88392
   A16        1.93103   0.01175   0.00000   0.01403   0.01405   1.94508
   A17        1.91501  -0.00429   0.00000  -0.00461  -0.00462   1.91040
   A18        1.90026  -0.00198   0.00000   0.00191   0.00192   1.90218
   A19        1.92930   0.01373   0.00000   0.00693   0.00693   1.93623
   A20        1.88245   0.00171   0.00000  -0.00022  -0.00022   1.88224
   A21        1.93760  -0.00577   0.00000   0.00421   0.00421   1.94181
   A22        1.89816  -0.00366   0.00000  -0.00847  -0.00847   1.88969
   A23        1.94890  -0.01605   0.00000   0.01504   0.01504   1.96395
   A24        2.01146   0.02893   0.00000   0.08407   0.08407   2.09553
   A25        1.84990  -0.00806   0.00000   0.00177   0.00177   1.85167
   A26        1.90641  -0.00174   0.00000   0.00021   0.00027   1.90668
   A27        1.90151  -0.00017   0.00000   0.00200   0.00192   1.90344
   A28        1.87854   0.00413   0.00000   0.00345   0.00347   1.88201
   A29        1.89725   0.00092   0.00000  -0.00104  -0.00104   1.89621
   A30        1.94645  -0.00094   0.00000  -0.00315  -0.00308   1.94337
   A31        1.93307  -0.00219   0.00000  -0.00130  -0.00139   1.93168
   A32        1.87189   0.00294   0.00000   0.00328   0.00332   1.87521
   A33        1.90416  -0.00165   0.00000  -0.00099  -0.00093   1.90323
   A34        1.90473   0.00093   0.00000   0.00255   0.00247   1.90720
   A35        1.94544  -0.00108   0.00000  -0.00180  -0.00177   1.94367
   A36        1.93430  -0.00164   0.00000  -0.00335  -0.00340   1.93090
   A37        1.90261   0.00055   0.00000   0.00047   0.00046   1.90307
    D1        2.01685  -0.03346   0.00000   0.00947   0.00990   2.02675
    D2       -2.78857   0.02970   0.00000   0.06867   0.06960  -2.71897
    D3        0.20930   0.00079   0.00000   0.00960   0.00955   0.21884
    D4        0.34287   0.00646   0.00000  -0.08179  -0.08194   0.26094
    D5       -1.91738  -0.00314   0.00000  -0.10940  -0.10889  -2.02627
    D6        2.12229  -0.00857   0.00000  -0.09029  -0.09066   2.03163
    D7        1.23155  -0.02048   0.00000  -0.03163  -0.03210   1.19944
    D8        2.85601   0.00258   0.00000  -0.01211  -0.01107   2.84493
    D9       -1.72627   0.01619   0.00000   0.04045   0.03989  -1.68638
   D10        0.14268  -0.00089   0.00000  -0.01076  -0.01084   0.13184
   D11       -1.61737   0.02826   0.00000   0.00875   0.00898  -1.60839
   D12       -3.14116  -0.02853   0.00000  -0.06346  -0.06223   3.07980
   D13       -0.46705  -0.00007   0.00000  -0.00518  -0.00509  -0.47214
   D14       -2.57657   0.00044   0.00000  -0.00439  -0.00438  -2.58095
   D15        1.62942   0.00019   0.00000  -0.00586  -0.00585   1.62357
   D16        0.46734  -0.00851   0.00000  -0.03067  -0.03067   0.43666
   D17       -2.53892   0.00066   0.00000   0.01049   0.01053  -2.52839
   D18        1.67412   0.00067   0.00000   0.01045   0.01050   1.68462
   D19       -0.42293   0.00099   0.00000   0.00887   0.00904  -0.41389
   D20        0.74642   0.00034   0.00000   0.01908   0.01903   0.76545
   D21       -1.31009   0.00190   0.00000   0.02088   0.02083  -1.28926
   D22        2.88905  -0.00066   0.00000   0.02589   0.02584   2.91489
   D23        2.88067  -0.00319   0.00000   0.00318   0.00323   2.88389
   D24        0.82416  -0.00163   0.00000   0.00498   0.00502   0.82918
   D25       -1.25989  -0.00420   0.00000   0.00999   0.01003  -1.24986
   D26       -1.32107  -0.00019   0.00000   0.01500   0.01501  -1.30606
   D27        2.90561   0.00137   0.00000   0.01680   0.01681   2.92242
   D28        0.82156  -0.00119   0.00000   0.02181   0.02181   0.84337
   D29       -2.56550  -0.00595   0.00000   0.02661   0.02659  -2.53891
   D30        1.66888  -0.00565   0.00000   0.02455   0.02460   1.69347
   D31       -0.44700  -0.01085   0.00000   0.02227   0.02225  -0.42475
   D32       -1.49695   0.00070   0.00000   0.01603   0.01601  -1.48094
   D33        0.63246   0.00075   0.00000   0.01782   0.01783   0.65029
   D34        2.70092  -0.00286   0.00000   0.01479   0.01480   2.71571
   D35        1.66862  -0.01017   0.00000   0.00376   0.00376   1.67238
   D36        0.57897   0.00208   0.00000  -0.00008  -0.00029   0.57868
   D37        2.66218   0.00128   0.00000  -0.00028  -0.00038   2.66180
   D38       -1.49856   0.00010   0.00000  -0.00326  -0.00336  -1.50192
   D39        2.66973   0.00200   0.00000   0.00051   0.00042   2.67015
   D40       -1.53025   0.00121   0.00000   0.00031   0.00033  -1.52992
   D41        0.59220   0.00002   0.00000  -0.00267  -0.00265   0.58955
   D42       -1.49800   0.00102   0.00000  -0.00386  -0.00395  -1.50195
   D43        0.58521   0.00022   0.00000  -0.00406  -0.00404   0.58117
   D44        2.70765  -0.00096   0.00000  -0.00704  -0.00702   2.70063
         Item               Value     Threshold  Converged?
 Maximum Force            0.076812     0.000450     NO 
 RMS     Force            0.014055     0.000300     NO 
 Maximum Displacement     0.214688     0.001800     NO 
 RMS     Displacement     0.073359     0.001200     NO 
 Predicted change in Energy=-2.166295D-02
 GradGradGradGradGradGradGradGradGradGradGradGradGradGradGradGradGradGrad

                          Input orientation:                          
 ---------------------------------------------------------------------
 Center     Atomic      Atomic             Coordinates (Angstroms)
 Number     Number       Type             X           Y           Z
 ---------------------------------------------------------------------
      1         14           0        0.579213    0.594928   -0.107478
      2          8           0        1.697988   -0.075587   -1.125815
      3          8           0        1.575289    2.069158    0.401155
      4          1           0        2.333623    2.240602   -0.156589
      5          8           0       -0.564854    1.674954   -0.362555
      6          8           0        0.757530   -0.405644    1.192021
      7          6           0       -1.848017   -1.415319   -0.085604
      8          1           0       -1.290820   -2.084706    0.569530
      9          1           0       -2.529348   -2.000750   -0.708389
     10          6           0       -2.623837   -0.384243    0.725609
     11          1           0       -1.985501    0.007160    1.523400
     12          1           0       -3.482544   -0.872498    1.192971
     13          8           0       -0.892282   -0.792125   -0.944809
     14          1           0       -1.206850    0.423777   -1.233501
     15          8           0       -3.099592    0.648856   -0.099172
     16          1           0       -2.371045    1.286674   -0.179273
     17          6           0        1.872208   -1.251068    0.945682
     18          1           0        1.677443   -2.236420    1.372052
     19          1           0        2.756270   -0.827741    1.432430
     20          6           0        2.076446   -1.330308   -0.580120
     21          1           0        3.119062   -1.527900   -0.831660
     22          1           0        1.450259   -2.115554   -1.012398
 ---------------------------------------------------------------------
                    Distance matrix (angstroms):
                    1          2          3          4          5
     1  Si   0.000000
     2  O    1.654769   0.000000
     3  O    1.850467   2.635645   0.000000
     4  H    2.405953   2.590012   0.956840   0.000000
     5  O    1.593866   2.960982   2.306265   2.960329   0.000000
     6  O    1.649739   2.523046   2.723756   3.362356   2.914497
     7  C    3.151669   3.930785   4.908924   5.554900   3.357529
     8  H    3.337034   3.980417   5.049506   5.689650   3.940920
     9  H    4.094116   4.663782   5.885854   6.476267   4.182061
    10  C    3.451426   4.711816   4.874126   5.678424   3.108666
    11  H    3.095641   4.537982   4.265031   5.144459   2.890779
    12  H    4.510252   5.731469   5.904403   6.733535   4.173977
    13  O    2.188684   2.693638   4.010918   4.497242   2.555917
    14  H    2.118311   2.949414   3.622109   4.122564   1.654131
    15  O    3.679209   4.959394   4.911425   5.661870   2.747207
    16  H    3.031120   4.394169   4.064815   4.800457   1.856523
    17  C    2.487706   2.388138   3.377657   3.690482   4.026457
    18  H    3.378113   3.302871   4.414870   4.776090   4.830694
    19  H    3.022397   2.868853   3.293974   3.481140   4.529384
    20  C    2.484277   1.419626   3.573574   3.605124   4.006920
    21  H    3.388462   2.053093   4.103888   3.908227   4.904036
    22  H    2.987359   2.058081   4.418776   4.526459   4.341766
                    6          7          8          9         10
     6  O    0.000000
     7  C    3.072563   0.000000
     8  H    2.720749   1.089838   0.000000
     9  H    4.118189   1.093069   1.781594   0.000000
    10  C    3.413450   1.524166   2.166303   2.162954   0.000000
    11  H    2.793642   2.152033   2.401739   3.050959   1.094140
    12  H    4.265698   2.145015   2.581043   2.407635   1.092793
    13  O    2.727139   1.428298   2.030473   2.048573   2.440276
    14  H    3.229533   2.260761   3.090381   2.811241   2.549286
    15  O    4.201968   2.414010   3.345322   2.777901   1.404955
    16  H    3.812134   2.753743   3.618535   3.333493   1.916945
    17  C    1.420539   3.864013   3.292595   4.761477   4.584129
    18  H    2.056791   3.902285   3.078578   4.699027   4.727521
    19  H    2.056921   4.883558   4.324754   5.822097   5.444432
    20  C    2.394792   3.956410   3.637209   4.656102   4.969168
    21  H    3.306294   5.024057   4.660518   5.669508   6.059202
    22  H    2.874566   3.496841   3.164958   3.992852   4.755666
                   11         12         13         14         15
    11  H    0.000000
    12  H    1.767518   0.000000
    13  O    2.815323   3.359467   0.000000
    14  H    2.894887   3.570277   1.288687   0.000000
    15  O    2.070197   2.032438   2.768347   2.218070   0.000000
    16  H    2.164462   2.789356   2.663493   1.792020   0.971601
    17  C    4.098635   5.373810   3.380382   4.127292   5.424041
    18  H    4.298105   5.340207   3.749309   4.710063   5.771427
    19  H    4.815571   6.243568   4.354821   4.937591   6.230350
    20  C    4.765819   5.852847   3.039076   3.779386   5.562353
    21  H    5.827459   6.936129   4.079834   4.762776   6.629213
    22  H    4.768714   5.544491   2.691380   3.682026   5.401581
                   16         17         18         19         20
    16  H    0.000000
    17  C    5.070587   0.000000
    18  H    5.586506   1.091167   0.000000
    19  H    5.775612   1.094393   1.775357   0.000000
    20  C    5.175853   1.541448   2.188885   2.182909   0.000000
    21  H    6.203927   2.188658   2.727016   2.397487   1.090579
    22  H    5.183784   2.181617   2.398296   3.056356   1.093428
                   21         22
    21  H    0.000000
    22  H    1.778457   0.000000
 Stoichiometry    C4H11O6Si(1-)
 Framework group  C1[X(C4H11O6Si)]
 Deg. of freedom    60
 Full point group                 C1      NOp   1
 Largest Abelian subgroup         C1      NOp   1
 Largest concise Abelian subgroup C1      NOp   1
                         Standard orientation:                         
 ---------------------------------------------------------------------
 Center     Atomic      Atomic             Coordinates (Angstroms)
 Number     Number       Type             X           Y           Z
 ---------------------------------------------------------------------
      1         14           0        0.585003    0.608201   -0.068194
      2          8           0        1.717206   -0.017995   -1.099820
      3          8           0        1.568515    2.066732    0.505928
      4          1           0        2.331472    2.262738   -0.037231
      5          8           0       -0.561921    1.691758   -0.293758
      6          8           0        0.755467   -0.440065    1.194232
      7          6           0       -1.832131   -1.412758   -0.146978
      8          1           0       -1.278088   -2.103883    0.487946
      9          1           0       -2.504278   -1.977341   -0.798335
     10          6           0       -2.621168   -0.416811    0.694800
     11          1           0       -1.992769   -0.052948    1.513250
     12          1           0       -3.481993   -0.926439    1.134638
     13          8           0       -0.871077   -0.752983   -0.972268
     14          1           0       -1.188907    0.471505   -1.217890
     15          8           0       -3.093929    0.644573   -0.095049
     16          1           0       -2.367856    1.288369   -0.143577
     17          6           0        1.876795   -1.270323    0.927348
     18          1           0        1.682791   -2.272028    1.314121
     19          1           0        2.753831   -0.861621    1.438687
     20          6           0        2.096567   -1.290716   -0.598216
     21          1           0        3.142614   -1.473753   -0.846501
     22          1           0        1.478679   -2.061931   -1.066220
 ---------------------------------------------------------------------
 Rotational constants (GHZ):           1.5201485           0.7799189           0.6399004
 Standard basis: def2TZVPP (5D, 7F)
 There are   573 symmetry adapted cartesian basis functions of A   symmetry.
 There are   506 symmetry adapted basis functions of A   symmetry.
   506 basis functions,   766 primitive gaussians,   573 cartesian basis functions
    49 alpha electrons       49 beta electrons
       nuclear repulsion energy       863.9105883151 Hartrees.
 NAtoms=   22 NActive=   22 NUniq=   22 SFac= 1.00D+00 NAtFMM=   60 NAOKFM=F Big=F
 Integral buffers will be    131072 words long.
 Raffenetti 2 integral format.
 Two-electron integral symmetry is turned on.
 Nuclear repulsion after empirical dispersion term =      863.8968075152 Hartrees.
 One-electron integrals computed using PRISM.
   1 Symmetry operations used in ECPInt.
 ECPInt:  NShTT=   18145 NPrTT=   50058 LenC2=   17207 LenP2D=   36816.
 LDataN:  DoStor=T MaxTD1= 6 Len=  172
 NBasis=   506 RedAO= T EigKep=  2.13D-04  NBF=   506
 NBsUse=   506 1.00D-06 EigRej= -1.00D+00 NBFU=   506
 Initial guess from the checkpoint file:  "MoveProtonsTryAgain.chk"
 B after Tr=     0.000000   -0.000000   -0.000000
         Rot=    0.999972   -0.006857    0.001511    0.002576 Ang=  -0.86 deg.
 ExpMin= 7.01D-02 ExpMax= 4.48D+04 ExpMxC= 1.53D+03 IAcc=3 IRadAn=         5 AccDes= 0.00D+00
 Harris functional with IExCor= 4639 and IRadAn=       5 diagonalized for initial guess.
 HarFok:  IExCor= 4639 AccDes= 0.00D+00 IRadAn=         5 IDoV= 1 UseB2=F ITyADJ=14
 ICtDFT=  3500011 ScaDFX=  1.000000  1.000000  1.000000  1.000000
 FoFCou: FMM=F IPFlag=           0 FMFlag=      100000 FMFlg1=           0
         NFxFlg=           0 DoJE=T BraDBF=F KetDBF=T FulRan=T
         wScrn=  0.000000 ICntrl=       500 IOpCl=  0 I1Cent=   200000004 NGrid=           0
         NMat0=    1 NMatS0=      1 NMatT0=    0 NMatD0=    1 NMtDS0=    0 NMtDT0=    0
 Petite list used in FoFCou.
 Requested convergence on RMS density matrix=1.00D-08 within 128 cycles.
 Requested convergence on MAX density matrix=1.00D-06.
 Requested convergence on             energy=1.00D-06.
 No special actions if energy rises.
 Integral accuracy reduced to 1.0D-05 until final iterations.
 Initial convergence to 1.0D-05 achieved.  Increase integral accuracy.
 SCF Done:  E(RwB97XD) =  -900.100063600     A.U. after   13 cycles
            NFock= 13  Conv=0.48D-08     -V/T= 2.0038
 DoSCS=F DFT=T ScalE2(SS,OS)=  1.000000  1.000000
 Range of M.O.s used for correlation:     1   506
 NBasis=   506 NAE=    49 NBE=    49 NFC=     0 NFV=     0
 NROrb=    506 NOA=    49 NOB=    49 NVA=   457 NVB=   457

 **** Warning!!: The largest alpha MO coefficient is  0.12525677D+02

   1 Symmetry operations used in ECPInt.
 ECPInt:  NShTT=   18145 NPrTT=   50058 LenC2=   17207 LenP2D=   36816.
 LDataN:  DoStor=T MaxTD1= 7 Len=  274
 Symmetrizing basis deriv contribution to polar:
 IMax=3 JMax=2 DiffMx= 0.00D+00
 G2DrvN: will do    23 centers at a time, making    1 passes.
 Calling FoFCou, ICntrl=  3107 FMM=F I1Cent=   0 AccDes= 0.00D+00.
 End of G2Drv F.D. properties file   721 does not exist.
 End of G2Drv F.D. properties file   722 does not exist.
 End of G2Drv F.D. properties file   788 does not exist.
          IDoAtm=1111111111111111111111
          Differentiating once with respect to electric field.
                with respect to dipole field.
          Differentiating once with respect to nuclear coordinates.
 CalDSu exits because no D1Ps are significant.
          There are    69 degrees of freedom in the 1st order CPHF.  IDoFFX=6 NUNeed=     3.
     66 vectors produced by pass  0 Test12= 3.25D-14 1.45D-09 XBig12= 4.05D+01 1.23D+00.
 AX will form    66 AO Fock derivatives at one time.
     66 vectors produced by pass  1 Test12= 3.25D-14 1.45D-09 XBig12= 5.01D+00 3.18D-01.
     66 vectors produced by pass  2 Test12= 3.25D-14 1.45D-09 XBig12= 1.26D-01 5.63D-02.
     66 vectors produced by pass  3 Test12= 3.25D-14 1.45D-09 XBig12= 2.02D-03 6.55D-03.
     66 vectors produced by pass  4 Test12= 3.25D-14 1.45D-09 XBig12= 2.50D-05 7.08D-04.
     66 vectors produced by pass  5 Test12= 3.25D-14 1.45D-09 XBig12= 2.20D-07 5.15D-05.
     66 vectors produced by pass  6 Test12= 3.25D-14 1.45D-09 XBig12= 1.73D-09 4.11D-06.
     28 vectors produced by pass  7 Test12= 3.25D-14 1.45D-09 XBig12= 1.38D-11 3.41D-07.
      3 vectors produced by pass  8 Test12= 3.25D-14 1.45D-09 XBig12= 9.61D-14 3.78D-08.
      2 vectors produced by pass  9 Test12= 3.25D-14 1.45D-09 XBig12= 7.10D-16 4.06D-09.
 InvSVY:  IOpt=1 It=  1 EMax= 5.33D-15
 Solved reduced A of dimension   495 with    69 vectors.
 Isotropic polarizability for W=    0.000000       99.21 Bohr**3.
 End of Minotr F.D. properties file   721 does not exist.
 End of Minotr F.D. properties file   722 does not exist.
 End of Minotr F.D. properties file   788 does not exist.
   1 Symmetry operations used in ECPInt.
 ECPInt:  NShTT=   18145 NPrTT=   50058 LenC2=   17207 LenP2D=   36816.
 LDataN:  DoStor=T MaxTD1= 8 Len=  415
 Calling FoFJK, ICntrl=    100127 FMM=F ISym2X=0 I1Cent= 0 IOpClX= 0 NMat=1 NMatS=1 NMatT=0.
 ***** Axes restored to original set *****
 -------------------------------------------------------------------
 Center     Atomic                   Forces (Hartrees/Bohr)
 Number     Number              X              Y              Z
 -------------------------------------------------------------------
      1       14           0.023460163    0.093193968    0.016441393
      2        8           0.006990620   -0.019838181   -0.005684850
      3        8           0.013549836   -0.028670691    0.002708248
      4        1          -0.001606852   -0.005565738    0.001928488
      5        8          -0.048603805   -0.045960382   -0.034190152
      6        8           0.005520819   -0.017787448    0.006407135
      7        6           0.011829932    0.014907287   -0.014200858
      8        1          -0.001013730   -0.001977590    0.003341565
      9        1          -0.002450866   -0.001036498   -0.000296478
     10        6          -0.000398417   -0.000402463   -0.000849587
     11        1           0.000498564    0.000760696   -0.000892548
     12        1          -0.001494500   -0.000583155    0.000848909
     13        8          -0.018284562    0.046529302   -0.015594291
     14        1           0.022669562   -0.044254841    0.036540149
     15        8          -0.010869013   -0.001772793    0.005310029
     16        1           0.008489949    0.002788493    0.000371046
     17        6          -0.007207315    0.005713929    0.001017105
     18        1           0.000301170   -0.002146971    0.000435271
     19        1           0.001164184    0.000792840   -0.000311208
     20        6          -0.003571762    0.008136811   -0.003633895
     21        1           0.001777161   -0.001049467    0.000052068
     22        1          -0.000751137   -0.001777108    0.000252461
 -------------------------------------------------------------------
 Cartesian Forces:  Max     0.093193968 RMS     0.019317042
 FormGI is forming the generalized inverse of G from B-inverse, IUseBI=4.

 GradGradGradGradGradGradGradGradGradGradGradGradGradGradGradGradGradGrad
 Berny optimization.
 Internal  Forces:  Max     0.064135511 RMS     0.011633601
 Search for a saddle point.
 Step number   2 out of a maximum of  113
 All quantities printed in internal units (Hartrees-Bohrs-Radians)
 Swapping is turned off.
 Second derivative matrix not updated -- analytic derivatives used.
 ITU=  0  0
     Eigenvalues ---   -0.08268  -0.00428  -0.00069   0.00330   0.00370
     Eigenvalues ---    0.00750   0.01031   0.01379   0.02298   0.02823
     Eigenvalues ---    0.04508   0.04706   0.04789   0.04909   0.04951
     Eigenvalues ---    0.05848   0.05936   0.06322   0.06705   0.06940
     Eigenvalues ---    0.09242   0.09644   0.09740   0.10023   0.10142
     Eigenvalues ---    0.10265   0.10534   0.11564   0.12258   0.13480
     Eigenvalues ---    0.15225   0.16307   0.17913   0.19837   0.21579
     Eigenvalues ---    0.22329   0.23407   0.24891   0.25278   0.26731
     Eigenvalues ---    0.28084   0.28259   0.29083   0.31022   0.32224
     Eigenvalues ---    0.32697   0.32940   0.33095   0.33160   0.33232
     Eigenvalues ---    0.34370   0.34750   0.37580   0.38299   0.40059
     Eigenvalues ---    0.41905   0.48227   0.55172   0.81618   0.91702
 Eigenvectors required to have negative eigenvalues:
                          R7        R16       D2        D9        D12
   1                    0.72653  -0.58529   0.12661   0.12584  -0.11498
                          D16       A24       R3        D7        A23
   1                    0.10163   0.10140  -0.09910  -0.09527  -0.09509
 RFO step:  Lambda0=1.379733081D-02 Lambda=-7.41640991D-02.
 Linear search not attempted -- option 19 set.
 Maximum step size (   0.300) exceeded in Quadratic search.
    -- Step size scaled by   0.336
 Iteration  1 RMS(Cart)=  0.07747475 RMS(Int)=  0.00559605
 Iteration  2 RMS(Cart)=  0.00970854 RMS(Int)=  0.00035608
 Iteration  3 RMS(Cart)=  0.00004331 RMS(Int)=  0.00035533
 Iteration  4 RMS(Cart)=  0.00000001 RMS(Int)=  0.00035533
[...]
 2074,-0.00000680,0.00044861,0.00050591,0.00002484,-0.00049988,-0.00020
 947,0.00077970,0.01680306,0.02110509,-0.00522944,0.00013874,-0.0011564
 4,0.00063811,-0.00116266,0.00045233,0.00032757,0.05766484,0.05396455,-
 0.08256901,-0.01394363,-0.01349076,0.00902995,-0.06560510,-0.06760598,
 0.08655399,0.01959123,0.03186540,0.00285798,-0.01826326,0.00189195,-0.
 00065620,-0.00132999,-0.00299756,-0.00072956,0.00037035,0.00062726,0.0
 0025192,0.00089271,-0.02508086,0.00681640,-0.01298137,-0.00328000,-0.0
 1870980,-0.13625221,-0.07479089,0.03918118,0.01757446,-0.00181820,-0.0
 0094844,-0.02225298,-0.03400559,0.01646648,-0.01778819,-0.01127430,0.0
 2067971,0.00122186,0.00115775,0.00164400,-0.00063996,0.00085172,0.0036
 2325,0.17888531,0.04159486,0.00017330,0.01411082,-0.00900810,0.0081404
 3,-0.00118331,-0.00462555,-0.00044599,-0.00275885,-0.00031244,-0.00022
 799,-0.00016080,-0.02439904,-0.04591384,0.01486664,-0.00912643,0.00840
 484,-0.01082963,-0.08031572,-0.16618715,0.07088024,-0.01443802,-0.0370
 9875,0.02498832,-0.02705278,-0.02269364,0.00823632,-0.00347147,-0.0055
 0116,0.01208352,0.00015453,0.00158538,0.00178746,0.00082157,0.00035560
 ,-0.00107736,0.13228650,0.26317338,-0.00825767,0.00314501,-0.02679365,
 0.00727450,-0.00243462,0.00461284,0.00148529,-0.00039332,0.00294784,0.
 00081210,0.00042324,-0.00014211,0.00874910,0.02202545,0.00408495,-0.01
 657012,-0.00608185,-0.00693708,0.04140980,0.06393144,-0.12311785,0.004
 69469,0.02002639,-0.00667475,0.00436131,-0.00273820,0.01608655,0.02926
 933,0.02956543,-0.02218753,-0.00156833,0.00107582,0.00346725,0.0049701
 7,-0.00236914,-0.00614638,-0.07565876,-0.12760793,0.16634158,-0.022683
 26,0.00001555,-0.01929358,0.00109776,-0.00236234,0.00170718,0.00020865
 ,0.00055577,-0.00125722,0.00005890,-0.00053897,-0.00024859,-0.25433520
 ,-0.19817624,-0.07679832,-0.00057503,-0.00158193,0.00028615,-0.0043353
 8,-0.00375434,0.00115558,0.00005865,0.00131894,-0.00068540,0.00003177,
 -0.00039110,0.00034881,0.00045369,-0.00066819,0.00050428,-0.00011935,0
 .00013448,-0.00017955,-0.00002134,0.00021148,-0.00008188,-0.00752956,0
 .00011571,-0.00245607,0.28754240,0.01008307,0.02422801,-0.00196321,-0.
 00086269,-0.00419155,0.00090620,0.00520625,0.00006111,0.00393042,0.000
 90560,0.00096680,0.00067467,-0.21394519,-0.22082566,-0.06434859,-0.001
 71224,-0.00344245,-0.00050133,-0.00954559,-0.00647918,0.00076865,0.000
 34737,0.00305193,-0.00186439,0.00115586,0.00054826,0.00066048,0.000308
 59,0.00173938,-0.00001308,-0.00005242,-0.00007303,-0.00014786,0.000545
 70,-0.00018108,-0.00047591,0.00159305,-0.00621091,-0.00305510,0.204040
 18,0.20943250,-0.02072085,-0.00862829,-0.00421802,0.00065891,0.0006540
 7,-0.00082941,-0.00359530,0.00058336,-0.00170649,-0.00128088,-0.000330
 90,0.00060509,-0.07313536,-0.05570778,-0.04645456,0.00098751,0.0003478
 7,-0.00004962,0.00217341,0.00011083,-0.00244093,-0.00010108,-0.0016489
 4,0.00079385,-0.00056029,-0.00056738,0.00015550,-0.00021746,0.00071854
 ,-0.00043276,0.00011628,-0.00003890,0.00010467,-0.00008795,-0.00023559
 ,0.00017353,-0.00110150,-0.00067004,-0.00226059,0.09539497,0.06528105,
 0.05786918,0.00180619,0.00323421,-0.00138754,-0.00061436,-0.00054285,0
 .00050977,-0.00031246,-0.00079511,0.00015778,0.00016808,0.00019913,0.0
 0001850,0.00044289,-0.00165160,0.00066510,-0.00065298,-0.00054319,0.00
 024270,-0.01513550,0.02110884,0.00057511,-0.00035801,0.00188453,0.0038
 8565,0.00159010,-0.00001725,0.00140320,-0.12135281,0.04643772,0.004856
 92,-0.01321709,0.03304004,-0.00853374,0.01495046,-0.01302954,0.0032765
 3,-0.00159434,0.00543957,0.00265575,-0.00045634,0.00144321,-0.00045373
 ,0.32130782,0.00172640,-0.00428586,0.00076366,-0.00012823,0.00165203,-
 0.00074423,-0.00028860,0.00089887,-0.00000028,-0.00004938,-0.00022717,
 -0.00006856,-0.00113016,0.00253348,-0.00000164,0.00016556,0.00221676,-
 0.00066894,0.02013893,-0.03604791,0.00640538,0.00324540,-0.00047501,-0
 .00576884,-0.00169060,0.00139052,0.00079251,0.08083987,-0.18717342,0.0
 1637871,0.01382228,-0.00807023,0.00920964,0.01606498,-0.02948260,0.006
 78254,-0.00428432,0.00947106,0.00221189,0.00037297,-0.00151994,-0.0002
 2167,-0.01163463,0.36464473,-0.00308065,-0.00253824,-0.00309217,0.0010
 2919,0.00014533,0.00064308,0.00022259,0.00027157,0.00053219,0.00009941
 ,-0.00001755,-0.00007365,0.00060512,0.00110622,0.00060735,-0.00005061,
 0.00010123,0.00207712,0.01746996,-0.02024254,0.00485077,0.00404866,-0.
 00400073,-0.00402845,-0.00029227,0.00124083,0.00347117,-0.01550859,0.0
 4828731,-0.08518878,-0.01299847,0.02612253,-0.00095548,-0.00900521,0.0
 1909244,-0.00232984,0.00822362,-0.00723438,0.00018408,-0.00080322,-0.0
 0147026,0.00037925,-0.19313375,-0.18949875,0.32632352,-0.00588476,-0.0
 0115913,-0.00012041,0.00089287,-0.00046176,0.00010377,0.00063765,0.000
 47674,0.00020088,-0.00005577,-0.00008488,-0.00002107,0.00094505,0.0009
 8775,-0.00111913,0.00105560,-0.00071747,0.00085069,0.00233680,0.009012
 63,-0.00056486,-0.00047466,-0.00142536,0.00085054,-0.00078627,-0.00093
 674,-0.00024185,0.01222667,0.01062630,-0.01364124,-0.00130009,0.001772
 01,-0.00135041,-0.00088239,0.00236277,0.00018146,0.00211086,-0.0070967
 8,-0.00427759,-0.00034253,-0.00115603,0.00233677,-0.18705477,-0.116746
 13,0.20315729,0.17687040,0.00073350,0.00485545,-0.00043902,-0.00054999
 ,-0.00075516,0.00018210,0.00026315,-0.00053094,0.00003219,0.00004219,0
 .00012355,0.00003950,0.00134242,-0.00301407,-0.00012973,-0.00055427,-0
 .00084032,-0.00053419,-0.00113154,-0.00488491,0.00113084,-0.00102165,0
 .00083889,0.00056158,0.00017472,-0.00029215,-0.00020132,-0.01783563,-0
 .03220382,0.03254375,-0.00012010,0.00023631,-0.00001709,0.00407089,-0.
 00581749,0.00179769,-0.00507313,0.00169127,0.00179480,-0.00007727,0.00
 273261,0.00031339,-0.08431397,-0.11453233,0.12873125,0.10368661,0.1524
 0297,0.00292240,0.00184555,0.00374902,-0.00098712,0.00017309,-0.000520
 06,-0.00032657,-0.00032779,-0.00065174,-0.00011893,0.00000682,0.000041
 47,-0.00137439,-0.00071332,-0.00097443,0.00008006,-0.00050072,-0.00164
 793,0.00123228,-0.00778398,0.00272632,0.00009972,0.00179066,-0.0012386
 5,0.00025669,0.00023862,-0.00014374,0.00233725,0.01483574,-0.00630664,
 0.00066994,0.00012938,-0.00028936,-0.00095609,-0.00202885,-0.00023070,
 -0.00603728,0.00340070,-0.00179530,0.00254460,0.00121897,-0.00187499,0
 .18537114,0.15372933,-0.24280951,-0.18604082,-0.16590304,0.25161712,0.
 00039316,0.00818399,-0.01363954,-0.00211636,0.00127316,0.01225710,-0.0
 0408050,-0.00467399,0.00473021,0.00184283,0.00004677,-0.00012996,0.000
 00643,-0.00031842,0.00025860,-0.08830204,0.06463373,-0.00575019,-0.002
 17971,-0.00235219,-0.00064636,-0.00142173,0.00025362,-0.00106659,0.000
 35220,0.00032908,0.00026658,-0.00079750,0.00040871,-0.00068368,-0.0011
 7897,0.00016734,0.00073600,0.00036809,0.00012229,0.00007259,0.00219517
 ,-0.00012129,0.00263999,0.00025331,0.00047980,-0.00024478,0.00052684,-
 0.00029245,0.00023752,-0.00022245,0.00018617,0.00002146,0.55626768,0.0
 0378047,-0.02068714,0.04312339,0.00287403,-0.01763091,0.02625127,0.002
 09862,0.00353934,-0.00294633,-0.00205953,-0.00175806,0.00031334,-0.000
 97318,-0.00041486,-0.00407472,0.06035114,-0.20701355,0.01194884,0.0010
 8741,0.00615241,-0.00278230,0.00021853,-0.00257880,0.00020699,0.000045
 69,-0.00131636,0.00032279,-0.00070563,0.00041976,0.00106418,-0.0000732
 9,0.00119456,-0.00032451,-0.00066981,-0.00027202,-0.00013014,-0.006049
 98,-0.00694446,-0.00312217,0.00037590,0.00071317,0.00025709,0.00029698
 ,-0.00157434,0.00012574,0.00090604,0.00018104,0.00023516,0.05261836,0.
 50997199,-0.00668807,0.02375470,-0.00747110,0.00873157,0.01470747,-0.0
 3260844,0.00161549,0.00055027,-0.00108362,0.00033883,0.00008602,0.0000
 6241,0.00003315,-0.00044272,-0.00134501,-0.00187899,-0.00729127,-0.076
 66526,-0.00170525,-0.00257838,0.00027386,-0.00064868,0.00044367,-0.000
 15653,-0.00000308,0.00039383,-0.00011114,0.00028546,-0.00017323,0.0000
 5515,0.00044807,-0.00027963,-0.00009494,0.00009383,0.00004031,-0.00006
 912,0.00245606,-0.00044839,0.00007643,0.00017633,0.00048346,-0.0000516
 0,-0.00002492,0.00030612,-0.00034569,-0.00018715,0.00010730,0.00014996
 ,0.03487807,-0.06588201,0.49342395,-0.00035925,0.00166322,0.00024923,0
 .00037882,0.00026720,0.00030108,0.00056199,0.00039764,-0.00056955,-0.0
 0019884,0.00016475,-0.00000804,0.00003961,-0.00015369,0.00000018,0.014
 84292,0.01340575,-0.00724202,-0.00067863,-0.00034866,-0.00049446,-0.00
 091262,0.00004248,-0.00097213,-0.00004721,0.00010081,0.00007557,-0.000
 45712,0.00017964,-0.00060899,-0.00033206,0.00041311,0.00047864,0.00019
 303,0.00005560,0.00004538,0.00062652,-0.00002058,0.00061932,-0.0000043
 6,0.00008014,-0.00002832,0.00013150,-0.00005719,0.00005268,-0.00005088
 ,0.00003270,0.00000582,-0.16667233,-0.10906584,0.06759438,0.17284604,-
 0.00214977,-0.00156855,-0.00833434,0.00007493,0.00189796,-0.00132851,-
 0.00134857,-0.00229075,0.00203255,0.00068190,0.00035495,0.00000224,0.0
 0068872,0.00024785,0.00060596,-0.00792191,-0.03978387,0.01602644,-0.00
 064649,-0.00091743,0.00050559,-0.00045804,0.00043148,-0.00032875,-0.00
 008510,0.00027232,-0.00019184,0.00083571,-0.00034005,0.00045162,0.0003
 7557,-0.00060455,-0.00044286,-0.00004227,-0.00003618,-0.00010251,0.001
 28121,0.00130520,0.00007901,-0.00017653,-0.00032392,0.00005868,-0.0003
 9129,0.00065564,-0.00037561,-0.00019930,-0.00007451,0.00007886,-0.1030
 0261,-0.13969580,0.05985404,0.11276599,0.17161808,0.00282740,-0.001311
 15,-0.00040894,0.00031616,0.00187681,-0.00590304,0.00009123,0.00079988
 ,0.00003584,-0.00016122,-0.00004337,-0.00011397,-0.00070645,-0.0001130
 1,0.00001981,-0.00155562,0.00160493,0.00380891,-0.00061030,0.00206318,
 -0.00097998,-0.00034834,-0.00109223,-0.00040741,0.00026996,-0.00040161
 ,0.00009070,0.00010026,0.00011230,0.00064828,-0.00000303,-0.00002211,-
 0.00011829,-0.00000583,-0.00001665,-0.00001632,-0.00073815,-0.00159597
 ,0.00088962,0.00023286,0.00037019,-0.00012923,0.00017208,-0.00038086,-
 0.00019565,0.00002565,0.00012292,0.00003940,0.06325725,0.05880084,-0.0
 8831679,-0.06959247,-0.06728245,0.09294516,-0.00221938,-0.00157301,0.0
 0494676,0.00026664,-0.00024121,-0.00061622,0.00082755,0.00093404,-0.00
 040459,-0.00044070,-0.00006426,-0.00009796,0.00005634,0.00034221,-0.00
 063924,-0.00907780,0.02003220,-0.00809364,0.00027435,-0.00043950,-0.00
 000217,-0.00012245,0.00036157,-0.00001708,-0.00037377,0.00010561,-0.00
 009006,0.00030152,-0.00006702,-0.00000494,0.00020581,-0.00006028,-0.00
 019034,-0.00012685,-0.00006569,-0.00000940,-0.00015071,-0.00044661,-0.
 00043099,0.00003343,-0.00009898,0.00016004,-0.00032147,0.00021984,0.00
 003193,0.00015867,-0.00008387,0.00000333,-0.21413460,-0.01365273,-0.11
 018418,-0.01867558,-0.00319778,-0.01324903,0.23453855,0.00333030,-0.00
 044727,-0.00520815,-0.00087511,0.00143086,-0.00019945,-0.00079288,-0.0
 0036905,0.00010963,0.00014488,-0.00012310,0.00007631,0.00003972,-0.000
 00959,0.00095001,0.03623532,-0.02017835,0.02269861,0.00004052,-0.00104
 125,0.00053138,-0.00009886,0.00050076,-0.00010355,-0.00001198,0.000267
 52,-0.00009065,0.00016188,-0.00015499,-0.00012212,0.00000155,-0.000144
 33,-0.00005933,0.00002827,0.00001739,-0.00000597,0.00071279,0.00168992
 ,0.00043234,-0.00013440,-0.00020832,-0.00004831,-0.00010372,0.00032372
 ,-0.00001055,-0.00015298,-0.00005687,-0.00004558,-0.01508677,-0.045141
 75,-0.00383447,-0.01664999,0.00196252,-0.01117485,-0.00208351,0.061880
 39,-0.00017306,-0.00169556,0.00085040,0.00130837,0.00167655,-0.0009333
 3,0.00050780,0.00058428,-0.00008552,-0.00028182,0.00012235,0.00001325,
 -0.00009675,0.00026245,-0.00013567,-0.00048751,0.00602112,0.00539074,0
 .00042848,0.00058642,-0.00020806,0.00018449,-0.00017169,-0.00002557,0.
 00003285,-0.00011800,0.00002793,-0.00007175,0.00006619,-0.00002740,-0.
 00000878,0.00009755,0.00003829,-0.00004718,-0.00002168,0.00001835,-0.0
 0059071,-0.00013887,0.00017970,0.00005061,-0.00005244,0.00004334,-0.00
 002898,-0.00006318,0.00012242,0.00010457,-0.00003809,-0.00005233,-0.10
 867656,-0.00318525,-0.12711680,0.00993928,0.00031462,0.00756035,0.1217
 9165,0.00259478,0.13393251,0.00097756,0.01691656,-0.00276615,-0.071585
 27,-0.01039526,0.01220392,0.00057524,-0.00098421,-0.00044703,0.0000588
 9,0.00001158,0.00000550,-0.00390718,0.00162304,0.00095838,-0.00698946,
 0.01558357,0.01578242,-0.00126793,0.00097453,-0.00045440,-0.00043534,-
 0.00046525,0.00017873,0.00036760,0.00006285,0.00007496,0.00013284,0.00
 013782,0.00042509,0.00003008,-0.00004217,-0.00010013,0.00008959,0.0000
 1289,-0.00007203,-0.00074707,-0.00148788,0.00065080,0.00075997,0.00133
 227,-0.00035545,0.00033492,-0.00048677,-0.00044564,-0.00019244,0.00034
 137,0.00030109,-0.08222877,0.00287682,0.00455913,-0.00257486,0.0021741
 5,0.01927510,0.00571649,-0.00501177,-0.02609933,0.60077270,0.02765416,
 -0.04420772,-0.01285344,0.00228072,-0.19679488,0.06669718,-0.00075932,
 0.00297681,0.00193985,0.00012612,-0.00083328,-0.00097898,-0.00448234,0
 .00198807,0.00098360,0.01182716,-0.03134902,-0.01621364,-0.00050384,0.
 00298105,-0.00204530,-0.00075022,-0.00151519,0.00149794,-0.00053428,-0
 .00079792,0.00013285,-0.00007034,-0.00025029,0.00097459,0.00002613,-0.
 00010911,-0.00018772,-0.00016886,-0.00002354,0.00012759,-0.00404401,-0
 .00706019,0.00209205,0.00141331,0.00090323,-0.00046307,0.00017549,-0.0
 0072285,-0.00021903,0.00026593,0.00023768,-0.00023979,-0.00413531,-0.0
 7260919,-0.01531424,-0.00368472,0.00630551,0.01848031,0.00030620,-0.00
 089575,-0.00560728,-0.01718556,0.56002689,-0.01086940,0.00526323,0.015
 50988,0.00459234,0.08094717,-0.11202432,0.00114576,-0.00474337,-0.0046
 7719,-0.00026038,-0.00024273,0.00068008,0.00251030,-0.00125852,-0.0005
 7752,0.00955598,-0.00608630,-0.01196258,0.00023478,-0.00236839,0.00108
 673,-0.00050132,0.00102182,-0.00012626,0.00000895,0.00048227,-0.000201
 78,0.00088036,-0.00032842,0.00037294,-0.00007638,-0.00018722,-0.000352
 78,0.00001479,-0.00000137,-0.00019441,0.00337292,0.00210164,-0.0027663
 2,-0.00062179,-0.00028791,0.00022911,-0.00010767,0.00049564,-0.0005703
 2,-0.00023506,0.00002664,0.00036511,0.00978952,-0.03307703,-0.14572829
 ,-0.00039688,-0.00243709,-0.00839520,0.00618324,-0.00431639,-0.0157764
 4,0.03574092,0.03558657,0.42662983,0.00039717,-0.00277686,-0.00093435,
 0.00924147,0.00288738,-0.00252899,0.00023061,0.00048966,0.00007746,-0.
 00011296,-0.00008405,-0.00002950,0.00002369,0.00055047,-0.00014463,0.0
 0046551,-0.00033941,0.00094859,0.00073588,0.00068261,-0.00039849,0.000
 24500,0.00008657,-0.00010099,-0.00021362,-0.00004965,-0.00005855,0.000
 03645,0.00003330,-0.00013869,0.00004237,0.00001289,-0.00000946,-0.0000
 9339,-0.00004584,0.00004567,-0.00151503,0.00069461,0.00021000,-0.00002
 778,-0.00028172,0.00015574,-0.00025529,0.00013663,0.00023208,0.0001739
 0,-0.00014955,-0.00013327,-0.00487001,0.00070870,-0.00326052,0.0002635
 7,0.00039431,0.00096760,0.00208658,-0.00004579,0.00059101,-0.25285718,
 0.09692084,0.01348470,0.26632473,-0.00210581,0.00119104,0.00429997,0.0
 2604915,-0.03086609,0.00678901,-0.00047615,-0.00105331,-0.00053412,0.0
 0014625,-0.00004868,0.00002299,0.00156035,-0.00102546,-0.00021658,0.00
 044787,-0.00034494,-0.00191466,0.00011768,-0.00013498,0.00012689,0.000
 09770,0.00019762,-0.00018893,0.00007351,0.00009823,-0.00000663,-0.0000
 3475,0.00001895,-0.00015779,-0.00001591,-0.00000110,0.00005089,0.00003
 202,0.00001365,-0.00000593,-0.00007239,0.00147360,-0.00020773,-0.00039
 200,-0.00034186,0.00006600,-0.00001267,0.00010213,0.00008465,-0.000050
 24,-0.00008308,-0.00000337,0.00863145,-0.00206843,-0.00119019,0.000294
 78,-0.00068428,-0.00118768,-0.00067744,0.00071821,-0.00001031,0.090763
 27,-0.09294503,-0.00938470,-0.11015193,0.11512113,0.00090596,-0.000026
 22,-0.00522324,-0.01771914,0.02011845,-0.00047520,-0.00011440,0.000108
 13,0.00062151,0.00014020,0.00007121,-0.00007738,-0.00074350,0.00067729
 ,0.00038502,0.00237258,-0.00405067,-0.00336805,0.00002632,0.00008242,-
 0.00010384,0.00002849,0.00003650,-0.00010505,-0.00003502,0.00000422,0.
 00000926,-0.00014642,0.00001569,-0.00017760,-0.00002052,0.00000365,0.0
 0008635,0.00001369,0.00001025,0.00003673,-0.00026624,0.00000290,0.0006
 5542,0.00015215,0.00005813,-0.00001981,0.00000992,0.00001590,0.0001516
 1,0.00002229,-0.00002114,-0.00009526,0.02432485,-0.01347581,0.00108708
 ,0.00047718,0.00082856,-0.00193587,-0.00023650,-0.00069624,0.00121083,
 0.01418639,-0.01133041,-0.05039014,-0.01158603,0.00276224,0.05509934,-
 0.00112450,0.00211176,0.00179552,0.00528319,-0.00617454,0.00409818,0.0
 0007346,-0.00030411,-0.00022324,-0.00002334,0.00006200,0.00008865,0.00
 022291,-0.00040294,0.00004352,-0.00046656,0.00046018,-0.00030195,-0.00
 298851,0.00112233,0.00045611,-0.00159028,-0.00055544,0.00056189,0.0002
 4021,0.00002006,0.00004811,0.00009129,0.00003051,0.00000681,-0.0000290
 9,0.00000667,-0.00000778,0.00007747,0.00002030,-0.00005094,-0.00242382
 ,0.00081535,-0.00058262,-0.00006841,0.00013377,-0.00010067,0.00006662,
 0.00005558,-0.00009164,-0.00016146,0.00003727,0.00012870,0.00599927,0.
 00501130,0.00337048,0.00107974,0.00034717,-0.00056515,0.00117736,0.000
 35252,0.00162333,-0.18703037,-0.10467727,-0.07444569,-0.02032168,-0.01
 422475,-0.01179222,0.20191650,-0.00808353,0.00094249,0.00258852,-0.018
 29650,-0.03683345,0.00102090,0.00059785,-0.00194670,-0.00098870,0.0000
 7225,0.00016589,0.00024294,0.00120147,0.00024757,0.00006601,0.00127146
 ,0.00038224,-0.00052180,0.00068257,0.00098382,-0.00048337,0.00005536,0
 .00008210,-0.00005138,-0.00001541,0.00005118,-0.00006485,-0.00007313,0
 .00000447,-0.00020139,0.00000561,0.00000138,0.00006213,-0.00002963,-0.
 00000303,0.00004625,0.00050361,0.00082009,0.00120718,-0.00030096,-0.00
 057912,0.00016999,-0.00022392,0.00022272,0.00029856,0.00009001,-0.0002
 1413,-0.00013644,-0.00735144,-0.00246660,-0.00329265,0.00011686,0.0012
 6835,0.00039058,0.00045022,-0.00002067,-0.00122397,-0.09675184,-0.1253
 0527,-0.06120554,0.01032681,0.01066268,0.00480496,0.11575228,0.1515339
 7,0.00158036,-0.00038174,-0.00237758,0.01347880,0.02084912,0.00852312,
 -0.00030389,0.00060198,0.00074285,0.00006081,0.00006670,-0.00013340,0.
 00015875,0.00015046,-0.00002413,0.00115059,-0.00214798,0.00063335,0.00
 040694,-0.00150584,0.00089074,0.00063214,0.00086711,-0.00055791,-0.000
 24156,0.00023622,-0.00003569,-0.00006716,0.00007494,-0.00058067,0.0000
 0659,0.00002213,0.00010683,0.00002611,-0.00001067,0.00001234,-0.000136
 86,0.00124700,-0.00070472,-0.00012790,-0.00017213,0.00011449,-0.000129
 81,0.00032563,0.00024697,-0.00003430,-0.00010034,-0.00005775,-0.022632
 08,-0.01364938,-0.01396453,0.00007413,-0.00001421,0.00088261,0.0011493
 8,-0.00147745,-0.00502700,-0.07360227,-0.06305963,-0.09113016,0.002610
 61,0.00080600,0.00262826,0.07594062,0.05727208,0.09981198\\0.00000091,
 0.00000024,0.00000123,0.00000083,-0.00000012,0.00000119,0.00000161,-0.
 00000080,0.00000301,0.00000115,-0.00000167,0.00000319,0.00000207,0.000
 00115,0.00000166,0.00000005,-0.00000105,0.00000114,-0.00000045,0.00000
 107,-0.00000153,-0.00000100,0.00000055,-0.00000193,-0.00000027,0.00000
 201,-0.00000234,-0.00000083,0.00000050,-0.00000161,-0.00000114,-0.0000
 0064,-0.00000088,-0.00000129,0.00000057,-0.00000239,0.00000032,0.00000
 130,-0.00000047,0.00000178,0.00000165,0.00000087,0.,0.00000098,-0.0000
 0096,0.00000065,0.00000119,-0.00000039,-0.00000083,-0.00000154,0.00000
 021,-0.00000152,-0.00000145,-0.00000061,-0.00000117,-0.00000248,0.0000
 0078,-0.00000037,-0.00000046,0.00000019,-0.00000052,-0.00000104,0.0000
 0032,0.00000003,0.00000005,-0.00000068\\\@
 The archive entry for this job was punched.


 TRUST EVERYONE, BUT CUT THE CARDS.
 Job cpu time:       0 days  5 hours  3 minutes 52.1 seconds.
 Elapsed time:       0 days  1 hours 16 minutes  9.9 seconds.
 File lengths (MBytes):  RWF=    474 Int=      0 D2E=      0 Chk=     21 Scr=      1
 Normal termination of Gaussian 16 at Mon Mar 18 02:46:29 2024.
