 Entering Gaussian System, Link 0=/opt/software/gaussian/g16.c01/g16
 Initial command:
 /opt/software/gaussian/g16.c01/l1.exe "/scratch/arhender/25259123/Gau-269074.inp" -scrdir="/scratch/arhender/25259123/"
 Entering Link 1 = /opt/software/gaussian/g16.c01/l1.exe PID=    269078.
  
 Copyright (c) 1988-2019, Gaussian, Inc.  All Rights Reserved.
  
 This is part of the Gaussian(R) 16 program.  It is based on
 the Gaussian(R) 09 system (copyright 2009, Gaussian, Inc.),
 the Gaussian(R) 03 system (copyright 2003, Gaussian, Inc.),
 the Gaussian(R) 98 system (copyright 1998, Gaussian, Inc.),
 the Gaussian(R) 94 system (copyright 1995, Gaussian, Inc.),
 the Gaussian 92(TM) system (copyright 1992, Gaussian, Inc.),
 the Gaussian 90(TM) system (copyright 1990, Gaussian, Inc.),
 the Gaussian 88(TM) system (copyright 1988, Gaussian, Inc.),
 the Gaussian 86(TM) system (copyright 1986, Carnegie Mellon
 University), and the Gaussian 82(TM) system (copyright 1983,
 Carnegie Mellon University). Gaussian is a federally registered
 trademark of Gaussian, Inc.
  
 This software contains proprietary and confidential information,
 including trade secrets, belonging to Gaussian, Inc.
  
 This software is provided under written license and may be
 used, copied, transmitted, or stored only in accord with that
 written license.
  
 The following legend is applicable only to US Government
 contracts under FAR:
  
                    RESTRICTED RIGHTS LEGEND
  
 Use, reproduction and disclosure by the US Government is
 subject to restrictions as set forth in subparagraphs (a)
 and (c) of the Commercial Computer Software - Restricted
 Rights clause in FAR 52.227-19.
  
 Gaussian, Inc.
 340 Quinnipiac St., Bldg. 40, Wallingford CT 06492
  
  
 ---------------------------------------------------------------
 Warning -- This program may not be used in any manner that
 competes with the business of Gaussian, Inc. or will provide
 assistance to any competitor of Gaussian, Inc.  The licensee
 of this program is prohibited from giving any competitor of
 Gaussian, Inc. access to this program.  By using this program,
 the user acknowledges that Gaussian, Inc. is engaged in the
 business of creating and licensing software in the field of
 computational chemistry and represents and warrants to the
 licensee that it is not a competitor of Gaussian, Inc. and that
 it will not use this program in any manner prohibited above.
 ---------------------------------------------------------------
  

 Cite this work as:
 Gaussian 16, Revision C.01,
 M. J. Frisch, G. W. Trucks, H. B. Schlegel, G. E. Scuseria, 
 M. A. Robb, J. R. Cheeseman, G. Scalmani, V. Barone, 
 G. A. Petersson, H. Nakatsuji, X. Li, M. Caricato, A. V. Marenich, 
 J. Bloino, B. G. Janesko, R. Gomperts, B. Mennucci, H. P. Hratchian, 
 J. V. Ortiz, A. F. Izmaylov, J. L. Sonnenberg, D. Williams-Young, 
 F. Ding, F. Lipparini, F. Egidi, J. Goings, B. Peng, A. Petrone, 
 T. Henderson, D. Ranasinghe, V. G. Zakrzewski, J. Gao, N. Rega, 
 G. Zheng, W. Liang, M. Hada, M. Ehara, K. Toyota, R. Fukuda, 
 J. Hasegawa, M. Ishida, T. Nakajima, Y. Honda, O. Kitao, H. Nakai, 
 T. Vreven, K. Throssell, J. A. Montgomery, Jr., J. E. Peralta, 
 F. Ogliaro, M. J. Bearpark, J. J. Heyd, E. N. Brothers, K. N. Kudin, 
 V. N. Staroverov, T. A. Keith, R. Kobayashi, J. Normand, 
 K. Raghavachari, A. P. Rendell, J. C. Burant, S. S. Iyengar, 
 J. Tomasi, M. Cossi, J. M. Millam, M. Klene, C. Adamo, R. Cammi, 
 J. W. Ochterski, R. L. Martin, K. Morokuma, O. Farkas, 
 J. B. Foresman, and D. J. Fox, Gaussian, Inc., Wallingford CT, 2019.
 
 ******************************************
 Gaussian 16:  ES64L-G16RevC.01  3-Jul-2019
                15-Feb-2024 
 ******************************************
 %chk=EG_DeprotonatedOH_AttackPL2.chk
 %mem=1600MB
 %nprocs=4
 Will use up to    4 processors via shared memory.
 ----------------------------------------------------------
 # opt=modredundant freq wb97xd/def2tzvpp geom=connectivity
 ----------------------------------------------------------
 1/18=120,19=15,26=3,38=1,57=2/1,3;
 2/9=110,12=2,17=6,18=5,40=1/2;
 3/5=44,7=202,11=2,25=1,30=1,71=1,74=-58/1,2,3;
 4//1;
 5/5=2,38=5/2;
 6/7=2,8=2,9=2,10=2,28=1/1;
 7//1,2,3,16;
 1/18=20,19=15,26=3/3(2);
 2/9=110/2;
 99//99;
 2/9=110/2;
 3/5=44,7=202,11=2,25=1,30=1,71=1,74=-58/1,2,3;
 4/5=5,16=3,69=1/1;
 5/5=2,38=5/2;
 7//1,2,3,16;
 1/18=20,19=15,26=3/3(-5);
 2/9=110/2;
 6/7=2,8=2,9=2,10=2,19=2,28=1/1;
 99/9=1/99;
 ---------------------------------------------------------------------
 EG attack on PL2 extend attacking bond length attacking OH protonated
 ---------------------------------------------------------------------
 Symbolic Z-matrix:
 Charge = -2 Multiplicity = 1
 Si                   -0.26596   0.23894   0.02803 
 O                     0.59643   1.22984  -1.2971 
 O                    -1.02783  -0.84936  -1.2618 
 O                    -1.10615  -0.72644   1.31923 
 O                     0.49397   1.32467   1.3144 
 O                     1.66895  -1.22784   0.167 
 O                    -1.73884   1.35318  -0.0803 
 H                    -1.90994   1.53772  -0.99513 
 C                    -1.03569   0.07943   2.50979 
 H                    -1.73187   0.89055   2.46182 
 H                    -1.25662  -0.50679   3.38446 
 C                     0.36662   0.62132   2.52885 
 H                     0.52883   1.26768   3.36463 
 H                     1.06878  -0.18526   2.57714 
 C                     0.54721   0.42547  -2.45871 
 H                     0.77098   0.99702  -3.3321 
 H                     1.25108  -0.37599  -2.3788 
 C                    -0.86382  -0.13109  -2.50405 
 H                    -1.56055   0.68388  -2.56934 
 H                    -1.00374  -0.77288  -3.34501 
 C                     1.36233  -2.50472  -0.47716 
 H                     1.24599  -2.34183  -1.53619 
 H                     0.43747  -2.8766   -0.07571 
 C                     2.46689  -3.56094  -0.22574 
 H                     2.20291  -4.47074  -0.70953 
 H                     3.39819  -3.19846  -0.61225 
 O                     2.60129  -3.8224    1.18155 
 H                     3.23589  -4.51387   1.31207 
 
 The following ModRedundant input section has been read:
 B       1       6 F                                                           
 

 GradGradGradGradGradGradGradGradGradGradGradGradGradGradGradGradGradGrad
 Berny optimization.
 Initialization pass.
                           ----------------------------
                           !    Initial Parameters    !
                           ! (Angstroms and Degrees)  !
 --------------------------                            --------------------------
 ! Name  Definition              Value          Derivative Info.                !
 --------------------------------------------------------------------------------
 ! R1    R(1,2)                  1.8659         estimate D2E/DX2                !
 ! R2    R(1,3)                  1.8516         estimate D2E/DX2                !
 ! R3    R(1,4)                  1.818          estimate D2E/DX2                !
 ! R4    R(1,5)                  1.8469         estimate D2E/DX2                !
 ! R5    R(1,6)                  2.432          Frozen                          !
 ! R6    R(1,7)                  1.85           estimate D2E/DX2                !
 ! R7    R(2,15)                 1.4138         estimate D2E/DX2                !
 ! R8    R(3,18)                 1.4443         estimate D2E/DX2                !
 ! R9    R(4,9)                  1.4394         estimate D2E/DX2                !
 ! R10   R(5,12)                 1.4092         estimate D2E/DX2                !
 ! R11   R(6,21)                 1.4627         estimate D2E/DX2                !
 ! R12   R(7,8)                  0.9488         estimate D2E/DX2                !
 ! R13   R(9,10)                 1.07           estimate D2E/DX2                !
 ! R14   R(9,11)                 1.0759         estimate D2E/DX2                !
 ! R15   R(9,12)                 1.5035         estimate D2E/DX2                !
 ! R16   R(12,13)                1.0689         estimate D2E/DX2                !
 ! R17   R(12,14)                1.0705         estimate D2E/DX2                !
 ! R18   R(15,16)                1.0675         estimate D2E/DX2                !
 ! R19   R(15,17)                1.0697         estimate D2E/DX2                !
 ! R20   R(15,18)                1.5175         estimate D2E/DX2                !
 ! R21   R(18,19)                1.0742         estimate D2E/DX2                !
 ! R22   R(18,20)                1.0671         estimate D2E/DX2                !
 ! R23   R(21,22)                1.0778         estimate D2E/DX2                !
 ! R24   R(21,23)                1.0746         estimate D2E/DX2                !
 ! R25   R(21,24)                1.5488         estimate D2E/DX2                !
 ! R26   R(24,25)                1.0637         estimate D2E/DX2                !
 ! R27   R(24,26)                1.0715         estimate D2E/DX2                !
 ! R28   R(24,27)                1.4377         estimate D2E/DX2                !
 ! R29   R(27,28)                0.9476         estimate D2E/DX2                !
 ! A1    A(2,1,3)               90.4353         estimate D2E/DX2                !
 ! A2    A(2,1,5)               89.5578         estimate D2E/DX2                !
 ! A3    A(2,1,6)               89.6079         estimate D2E/DX2                !
 ! A4    A(2,1,7)               90.3743         estimate D2E/DX2                !
 ! A5    A(3,1,4)               89.5688         estimate D2E/DX2                !
 ! A6    A(3,1,6)               90.7267         estimate D2E/DX2                !
 ! A7    A(3,1,7)               89.1761         estimate D2E/DX2                !
 ! A8    A(4,1,5)               90.4381         estimate D2E/DX2                !
 ! A9    A(4,1,6)               90.3921         estimate D2E/DX2                !
 ! A10   A(4,1,7)               89.6257         estimate D2E/DX2                !
 ! A11   A(5,1,6)               89.2774         estimate D2E/DX2                !
 ! A12   A(5,1,7)               90.8198         estimate D2E/DX2                !
 ! A13   A(1,2,15)             105.3835         estimate D2E/DX2                !
 ! A14   A(1,3,18)             105.077          estimate D2E/DX2                !
 ! A15   A(1,4,9)              105.5174         estimate D2E/DX2                !
 ! A16   A(1,5,12)             105.6438         estimate D2E/DX2                !
 ! A17   A(1,6,21)             109.5459         estimate D2E/DX2                !
 ! A18   A(1,7,8)              108.4919         estimate D2E/DX2                !
 ! A19   A(4,9,10)             110.8233         estimate D2E/DX2                !
 ! A20   A(4,9,11)             110.9364         estimate D2E/DX2                !
 ! A21   A(4,9,12)             104.9474         estimate D2E/DX2                !
 ! A22   A(10,9,11)            108.4147         estimate D2E/DX2                !
 ! A23   A(10,9,12)            109.5241         estimate D2E/DX2                !
 ! A24   A(11,9,12)            112.1853         estimate D2E/DX2                !
 ! A25   A(5,12,9)             104.6702         estimate D2E/DX2                !
 ! A26   A(5,12,13)            110.9965         estimate D2E/DX2                !
 ! A27   A(5,12,14)            110.8345         estimate D2E/DX2                !
 ! A28   A(9,12,13)            111.6777         estimate D2E/DX2                !
 ! A29   A(9,12,14)            109.9251         estimate D2E/DX2                !
 ! A30   A(13,12,14)           108.7118         estimate D2E/DX2                !
 ! A31   A(2,15,16)            111.1199         estimate D2E/DX2                !
 ! A32   A(2,15,17)            109.9991         estimate D2E/DX2                !
 ! A33   A(2,15,18)            105.4018         estimate D2E/DX2                !
 ! A34   A(16,15,17)           108.9264         estimate D2E/DX2                !
 ! A35   A(16,15,18)           111.5205         estimate D2E/DX2                !
 ! A36   A(17,15,18)           109.8337         estimate D2E/DX2                !
 ! A37   A(3,18,15)            105.206          estimate D2E/DX2                !
 ! A38   A(3,18,19)            110.85           estimate D2E/DX2                !
 ! A39   A(3,18,20)            111.3361         estimate D2E/DX2                !
 ! A40   A(15,18,19)           109.0666         estimate D2E/DX2                !
 ! A41   A(15,18,20)           111.4723         estimate D2E/DX2                !
 ! A42   A(19,18,20)           108.8663         estimate D2E/DX2                !
 ! A43   A(6,21,22)            108.8706         estimate D2E/DX2                !
 ! A44   A(6,21,23)            108.5419         estimate D2E/DX2                !
 ! A45   A(6,21,24)            111.9837         estimate D2E/DX2                !
 ! A46   A(22,21,23)           109.0545         estimate D2E/DX2                !
 ! A47   A(22,21,24)           109.8495         estimate D2E/DX2                !
 ! A48   A(23,21,24)           108.4897         estimate D2E/DX2                !
 ! A49   A(21,24,25)           109.4185         estimate D2E/DX2                !
 ! A50   A(21,24,26)           109.3047         estimate D2E/DX2                !
 ! A51   A(21,24,27)           110.4624         estimate D2E/DX2                !
 ! A52   A(25,24,26)           109.9363         estimate D2E/DX2                !
 ! A53   A(25,24,27)           108.2316         estimate D2E/DX2                !
 ! A54   A(26,24,27)           109.4735         estimate D2E/DX2                !
 ! A55   A(24,27,28)           109.2786         estimate D2E/DX2                !
 ! A56   L(2,1,4,3,-1)         180.0041         estimate D2E/DX2                !
 ! A57   L(3,1,5,2,-1)         179.9931         estimate D2E/DX2                !
 ! A58   L(6,1,7,2,-1)         179.9822         estimate D2E/DX2                !
 ! A59   L(2,1,4,3,-2)         180.0001         estimate D2E/DX2                !
 ! A60   L(3,1,5,2,-2)         179.9958         estimate D2E/DX2                !
 ! A61   L(6,1,7,2,-2)         179.9027         estimate D2E/DX2                !
 ! D1    D(3,1,2,15)           -16.7807         estimate D2E/DX2                !
 ! D2    D(5,1,2,15)           163.2234         estimate D2E/DX2                !
 ! D3    D(6,1,2,15)            73.9431         estimate D2E/DX2                !
 ! D4    D(7,1,2,15)          -105.9597         estimate D2E/DX2                !
 ! D5    D(2,1,3,18)           -15.7279         estimate D2E/DX2                !
 ! D6    D(4,1,3,18)           164.272          estimate D2E/DX2                !
 ! D7    D(6,1,3,18)          -105.3413         estimate D2E/DX2                !
 ! D8    D(7,1,3,18)            74.6401         estimate D2E/DX2                !
 ! D9    D(3,1,4,9)           -164.2609         estimate D2E/DX2                !
 ! D10   D(5,1,4,9)             15.735          estimate D2E/DX2                !
 ! D11   D(6,1,4,9)            105.0153         estimate D2E/DX2                !
 ! D12   D(7,1,4,9)            -75.082          estimate D2E/DX2                !
 ! D13   D(2,1,5,12)          -163.0206         estimate D2E/DX2                !
 ! D14   D(4,1,5,12)            16.9795         estimate D2E/DX2                !
 ! D15   D(6,1,5,12)           -73.4071         estimate D2E/DX2                !
 ! D16   D(7,1,5,12)           106.6114         estimate D2E/DX2                !
 ! D17   D(2,1,6,21)          -105.3857         estimate D2E/DX2                !
 ! D18   D(3,1,6,21)           -14.9554         estimate D2E/DX2                !
 ! D19   D(4,1,6,21)            74.6184         estimate D2E/DX2                !
 ! D20   D(5,1,6,21)           165.0516         estimate D2E/DX2                !
 ! D21   D(2,1,7,8)             41.8186         estimate D2E/DX2                !
 ! D22   D(3,1,7,8)            -48.6113         estimate D2E/DX2                !
 ! D23   D(4,1,7,8)           -138.1854         estimate D2E/DX2                !
 ! D24   D(5,1,7,8)            131.3818         estimate D2E/DX2                !
 ! D25   D(1,2,15,16)          164.4964         estimate D2E/DX2                !
 ! D26   D(1,2,15,17)          -74.7995         estimate D2E/DX2                !
 ! D27   D(1,2,15,18)           43.5452         estimate D2E/DX2                !
 ! D28   D(1,3,18,15)           42.4796         estimate D2E/DX2                !
 ! D29   D(1,3,18,19)          -75.2799         estimate D2E/DX2                !
 ! D30   D(1,3,18,20)          163.3711         estimate D2E/DX2                !
 ! D31   D(1,4,9,10)            75.2831         estimate D2E/DX2                !
 ! D32   D(1,4,9,11)          -164.2281         estimate D2E/DX2                !
 ! D33   D(1,4,9,12)           -42.8561         estimate D2E/DX2                !
 ! D34   D(1,5,12,9)           -43.7639         estimate D2E/DX2                !
 ! D35   D(1,5,12,13)         -164.3919         estimate D2E/DX2                !
 ! D36   D(1,5,12,14)           74.6962         estimate D2E/DX2                !
 ! D37   D(1,6,21,22)           67.4903         estimate D2E/DX2                !
 ! D38   D(1,6,21,23)          -51.1001         estimate D2E/DX2                !
 ! D39   D(1,6,21,24)         -170.8443         estimate D2E/DX2                !
 ! D40   D(4,9,12,5)            58.0731         estimate D2E/DX2                !
 ! D41   D(4,9,12,13)          178.2476         estimate D2E/DX2                !
 ! D42   D(4,9,12,14)          -61.0024         estimate D2E/DX2                !
 ! D43   D(10,9,12,5)          -60.9425         estimate D2E/DX2                !
 ! D44   D(10,9,12,13)          59.232          estimate D2E/DX2                !
 ! D45   D(10,9,12,14)         179.982          estimate D2E/DX2                !
 ! D46   D(11,9,12,5)          178.6225         estimate D2E/DX2                !
 ! D47   D(11,9,12,13)         -61.203          estimate D2E/DX2                !
 ! D48   D(11,9,12,14)          59.5471         estimate D2E/DX2                !
 ! D49   D(2,15,18,3)          -58.2572         estimate D2E/DX2                !
 ! D50   D(2,15,18,19)          60.7023         estimate D2E/DX2                !
 ! D51   D(2,15,18,20)        -179.0592         estimate D2E/DX2                !
 ! D52   D(16,15,18,3)        -178.9462         estimate D2E/DX2                !
 ! D53   D(16,15,18,19)        -59.9868         estimate D2E/DX2                !
 ! D54   D(16,15,18,20)         60.2517         estimate D2E/DX2                !
 ! D55   D(17,15,18,3)          60.1984         estimate D2E/DX2                !
 ! D56   D(17,15,18,19)        179.1578         estimate D2E/DX2                !
 ! D57   D(17,15,18,20)        -60.6036         estimate D2E/DX2                !
 ! D58   D(6,21,24,25)         179.9316         estimate D2E/DX2                !
 ! D59   D(6,21,24,26)         -59.6332         estimate D2E/DX2                !
 ! D60   D(6,21,24,27)          60.8793         estimate D2E/DX2                !
 ! D61   D(22,21,24,25)        -58.9667         estimate D2E/DX2                !
 ! D62   D(22,21,24,26)         61.4684         estimate D2E/DX2                !
 ! D63   D(22,21,24,27)       -178.0191         estimate D2E/DX2                !
 ! D64   D(23,21,24,25)         60.1569         estimate D2E/DX2                !
 ! D65   D(23,21,24,26)       -179.408          estimate D2E/DX2                !
 ! D66   D(23,21,24,27)        -58.8954         estimate D2E/DX2                !
 ! D67   D(21,24,27,28)        175.982          estimate D2E/DX2                !
 ! D68   D(25,24,27,28)         56.2119         estimate D2E/DX2                !
 ! D69   D(26,24,27,28)        -63.6065         estimate D2E/DX2                !
 --------------------------------------------------------------------------------
 Trust Radius=3.00D-01 FncErr=1.00D-07 GrdErr=1.00D-06 EigMax=2.50D+02 EigMin=1.00D-04
 Number of steps in this run=    168 maximum allowed number of steps=    168.
 GradGradGradGradGradGradGradGradGradGradGradGradGradGradGradGradGradGrad

                          Input orientation:                          
 ---------------------------------------------------------------------
 Center     Atomic      Atomic             Coordinates (Angstroms)
 Number     Number       Type             X           Y           Z
 ---------------------------------------------------------------------
      1         14           0       -0.265956    0.238941    0.028028
      2          8           0        0.596428    1.229841   -1.297098
      3          8           0       -1.027834   -0.849362   -1.261801
      4          8           0       -1.106151   -0.726445    1.319228
      5          8           0        0.493974    1.324665    1.314396
      6          8           0        1.668954   -1.227836    0.166998
      7          8           0       -1.738839    1.353177   -0.080300
      8          1           0       -1.909942    1.537724   -0.995129
      9          6           0       -1.035692    0.079430    2.509789
     10          1           0       -1.731873    0.890554    2.461818
     11          1           0       -1.256620   -0.506791    3.384464
     12          6           0        0.366622    0.621316    2.528851
     13          1           0        0.528830    1.267683    3.364632
     14          1           0        1.068776   -0.185260    2.577139
     15          6           0        0.547209    0.425475   -2.458715
     16          1           0        0.770976    0.997019   -3.332101
     17          1           0        1.251078   -0.375989   -2.378805
     18          6           0       -0.863820   -0.131087   -2.504053
     19          1           0       -1.560552    0.683877   -2.569337
     20          1           0       -1.003737   -0.772879   -3.345009
     21          6           0        1.362335   -2.504717   -0.477156
     22          1           0        1.245992   -2.341830   -1.536194
     23          1           0        0.437471   -2.876598   -0.075707
     24          6           0        2.466888   -3.560938   -0.225737
     25          1           0        2.202912   -4.470735   -0.709534
     26          1           0        3.398191   -3.198459   -0.612253
     27          8           0        2.601290   -3.822400    1.181547
     28          1           0        3.235891   -4.513871    1.312074
 ---------------------------------------------------------------------
                    Distance matrix (angstroms):
                    1          2          3          4          5
     1  Si   0.000000
     2  O    1.865890   0.000000
     3  O    1.851626   2.638666   0.000000
     4  O    1.817993   3.683883   2.585141   0.000000
     5  O    1.846899   2.615223   3.698525   2.601438   0.000000
     6  O    2.432000   3.055170   3.075285   3.046348   3.035188
     7  O    1.850038   2.636150   2.598586   2.585304   2.632764
     8  H    2.331604   2.543201   2.558790   3.335984   3.340376
     9  C    2.603282   4.298797   3.884277   1.439387   2.306394
    10  H    2.914936   4.434586   4.169930   2.076469   2.541540
    11  H    3.578156   5.326041   4.664491   2.082328   3.271696
    12  C    2.607774   3.880850   4.298423   2.334247   1.409191
    13  H    3.580911   4.662374   5.320617   3.291411   2.051323
    14  H    2.908509   4.151546   4.424281   2.570122   2.050559
    15  C    2.622960   1.413782   2.353417   4.281749   3.879142
    16  H    3.597273   2.055701   3.306203   5.303658   4.666263
    17  H    2.910734   2.043855   2.581709   4.399409   4.135839
    18  C    2.627888   2.332636   1.444302   3.876939   4.306202
    19  H    2.936026   2.563052   2.084289   4.161301   4.440166
    20  H    3.597982   3.281060   2.084751   4.665593   5.324743
    21  C    3.230201   3.899466   3.011440   3.533082   4.316002
    22  H    3.375375   3.638122   2.733685   4.036766   4.704740
    23  H    3.195646   4.287179   2.768325   2.991951   4.425629
    24  C    4.687420   5.253379   4.543034   4.815380   5.489400
    25  H    5.368459   5.951688   4.884369   5.393096   6.372082
    26  H    5.064746   5.284763   5.052709   5.489132   5.710088
    27  O    5.103547   5.973967   5.289560   4.832082   5.563336
    28  H    6.041600   6.838477   6.183269   5.761769   6.450319
                    6          7          8          9         10
     6  O    0.000000
     7  O    4.282037   0.000000
     8  H    4.669835   0.948813   0.000000
     9  C    3.809557   2.970758   3.895560   0.000000
    10  H    4.617294   2.583879   3.521508   1.069996   0.000000
    11  H    4.408059   3.961894   4.877265   1.075882   1.740608
    12  C    3.270135   3.431655   4.294297   1.503492   2.116758
    13  H    4.213355   4.125189   5.002804   2.142529   2.463347
    14  H    2.693688   4.160706   4.960094   2.122118   3.002384
    15  C    3.299412   3.426880   3.068676   5.226027   5.442624
    16  H    4.242645   4.123134   3.597376   6.183340   6.312296
    17  H    2.716869   4.148825   3.945745   5.416187   5.825269
    18  C    3.840875   2.973765   2.481159   5.021202   5.143650
    19  H    4.644555   2.583613   1.824625   5.141824   5.038312
    20  H    4.436717   3.964696   3.417898   5.916596   6.084113
    21  C    1.462660   4.965694   5.226606   4.620626   5.453398
    22  H    2.078640   4.968090   5.030269   5.238183   5.941388
    23  H    2.072166   4.756820   5.083495   4.194413   5.033540
    24  C    2.496859   6.469762   6.763502   5.744863   6.683437
    25  H    3.401443   7.060544   7.286886   6.446441   7.367729
    26  H    2.735114   6.883999   7.124205   6.336484   7.244826
    27  O    2.937741   6.871359   7.336215   5.496922   6.528961
    28  H    3.816348   7.817218   8.271915   6.385872   7.430236
                   11         12         13         14         15
    11  H    0.000000
    12  C    2.153977   0.000000
    13  H    2.517337   1.068939   0.000000
    14  H    2.482463   1.070475   1.738601   0.000000
    15  C    6.185925   4.994675   5.883963   5.099495   0.000000
    16  H    7.175294   5.886884   6.706573   6.033704   1.067491
    17  H    6.286568   5.085466   6.017505   4.962962   1.069655
    18  C    5.913551   5.235477   6.191727   5.436577   1.517504
    19  H    6.079294   5.450636   6.318095   5.844226   2.126421
    20  H    6.739478   6.190630   7.178575   6.301781   2.151047
    21  C    5.075701   4.449674   5.448400   3.846397   3.630017
    22  H    5.817501   5.106674   6.128703   4.647764   2.999553
    23  H    4.523131   4.361668   5.386961   3.831375   4.073629
    24  C    6.018794   5.430481   6.321582   4.605001   4.956091
    25  H    6.666486   6.307779   7.234005   5.518494   5.456543
    26  H    6.699709   5.800657   6.632893   4.967672   4.966932
    27  O    5.543427   5.153211   5.913535   4.186294   5.959462
    28  H    6.366644   6.006946   6.705785   5.003364   6.770893
                   16         17         18         19         20
    16  H    0.000000
    17  H    1.739086   0.000000
    18  C    2.151939   2.132712   0.000000
    19  H    2.473032   3.010795   1.074180   0.000000
    20  H    2.506454   2.485008   1.067090   1.741794   0.000000
    21  C    4.556596   2.856594   3.833823   4.804957   4.101480
    22  H    3.820842   2.138820   3.205533   4.254289   3.285529
    23  H    5.071512   3.495606   3.889480   4.784064   4.146209
    24  C    5.770665   4.032095   5.296057   6.303268   5.435841
    25  H    6.230941   4.523207   5.608716   6.647748   5.558998
    26  H    5.648173   3.961961   5.581435   6.594834   5.720871
    27  O    6.851997   5.135847   6.262302   7.190034   6.541063
    28  H    7.616697   5.889324   7.111909   8.067701   7.325155
                   21         22         23         24         25
    21  C    0.000000
    22  H    1.077789   0.000000
    23  H    1.074630   1.752913   0.000000
    24  C    1.548823   2.166589   2.146943   0.000000
    25  H    2.150767   2.476146   2.461665   1.063708   0.000000
    26  H    2.155050   2.493881   3.026110   1.071499   1.748383
    27  O    2.454097   3.378614   2.675321   1.437663   2.038438
    28  H    3.278454   4.097571   3.526720   1.965785   2.270640
                   26         27         28
    26  H    0.000000
    27  O    2.059629   0.000000
    28  H    2.336597   0.947570   0.000000
 Stoichiometry    C6H14O7Si(2-)
 Framework group  C1[X(C6H14O7Si)]
 Deg. of freedom    78
 Full point group                 C1      NOp   1
 Largest Abelian subgroup         C1      NOp   1
 Largest concise Abelian subgroup C1      NOp   1
                         Standard orientation:                         
 ---------------------------------------------------------------------
 Center     Atomic      Atomic             Coordinates (Angstroms)
 Number     Number       Type             X           Y           Z
 ---------------------------------------------------------------------
      1         14           0        0.926322    0.064326    0.024217
      2          8           0        1.319773   -1.223639    1.315685
      3          8           0        0.612385   -1.264875   -1.226058
      4          8           0        0.542995    1.319323   -1.234012
      5          8           0        1.239633    1.389981    1.271418
      6          8           0       -1.406733    0.014180    0.709027
      7          8           0        2.700649    0.099804   -0.498418
      8          1           0        3.025845   -0.791276   -0.520139
      9          6           0        1.048304    2.559811   -0.707053
     10          1           0        2.114688    2.599972   -0.785188
     11          1           0        0.636690    3.399536   -1.238990
     12          6           0        0.650514    2.555906    0.742857
     13          1           0        1.003101    3.427523    1.251381
     14          1           0       -0.415789    2.516122    0.828495
     15          6           0        0.800691   -2.436105    0.806509
     16          1           0        1.198753   -3.275710    1.332006
     17          1           0       -0.265155   -2.444090    0.896345
     18          6           0        1.194062   -2.459045   -0.658944
     19          1           0        2.265286   -2.435840   -0.735122
     20          1           0        0.832370   -3.336470   -1.146781
     21          6           0       -2.195040   -0.704874   -0.291427
     22          1           0       -1.907662   -1.743591   -0.280951
     23          1           0       -1.978676   -0.290745   -1.259164
     24          6           0       -3.716608   -0.577535   -0.031684
     25          1           0       -4.249278   -1.112622   -0.780963
     26          1           0       -3.945561   -0.977731    0.935547
     27          8           0       -4.122600    0.800437   -0.088586
     28          1           0       -5.063469    0.853723    0.010482
 ---------------------------------------------------------------------
 Rotational constants (GHZ):           0.7657085           0.4969364           0.3686775
 Standard basis: def2TZVPP (5D, 7F)
 There are   726 symmetry adapted cartesian basis functions of A   symmetry.
 There are   641 symmetry adapted basis functions of A   symmetry.
   641 basis functions,   970 primitive gaussians,   726 cartesian basis functions
    61 alpha electrons       61 beta electrons
       nuclear repulsion energy      1200.6651404866 Hartrees.
 NAtoms=   28 NActive=   28 NUniq=   28 SFac= 1.00D+00 NAtFMM=   60 NAOKFM=F Big=F
 Integral buffers will be    131072 words long.
 Raffenetti 2 integral format.
 Two-electron integral symmetry is turned on.
 Nuclear repulsion after empirical dispersion term =     1200.6473354407 Hartrees.
 One-electron integrals computed using PRISM.
   1 Symmetry operations used in ECPInt.
 ECPInt:  NShTT=   29161 NPrTT=   80163 LenC2=   26483 LenP2D=   54557.
 LDataN:  DoStor=T MaxTD1= 6 Len=  172
 NBasis=   641 RedAO= T EigKep=  2.18D-04  NBF=   641
 NBsUse=   641 1.00D-06 EigRej= -1.00D+00 NBFU=   641
 ExpMin= 7.01D-02 ExpMax= 4.48D+04 ExpMxC= 1.53D+03 IAcc=3 IRadAn=         5 AccDes= 0.00D+00
 Harris functional with IExCor= 4639 and IRadAn=       5 diagonalized for initial guess.
 HarFok:  IExCor= 4639 AccDes= 0.00D+00 IRadAn=         5 IDoV= 1 UseB2=F ITyADJ=14
 ICtDFT=  3500011 ScaDFX=  1.000000  1.000000  1.000000  1.000000
 FoFCou: FMM=F IPFlag=           0 FMFlag=      100000 FMFlg1=           0
         NFxFlg=           0 DoJE=T BraDBF=F KetDBF=T FulRan=T
         wScrn=  0.000000 ICntrl=       500 IOpCl=  0 I1Cent=   200000004 NGrid=           0
         NMat0=    1 NMatS0=      1 NMatT0=    0 NMatD0=    1 NMtDS0=    0 NMtDT0=    0
 Petite list used in FoFCou.
 Requested convergence on RMS density matrix=1.00D-08 within 128 cycles.
 Requested convergence on MAX density matrix=1.00D-06.
 Requested convergence on             energy=1.00D-06.
 No special actions if energy rises.
 Integral accuracy reduced to 1.0D-05 until final iterations.
 Initial convergence to 1.0D-05 achieved.  Increase integral accuracy.
 SCF Done:  E(RwB97XD) =  -1053.23607558     A.U. after   16 cycles
            NFock= 16  Conv=0.32D-08     -V/T= 2.0040

 **********************************************************************

            Population analysis using the SCF Density.

 **********************************************************************

 Orbital symmetries:
       Occupied  (A) (A) (A) (A) (A) (A) (A) (A) (A) (A) (A) (A)
                 (A) (A) (A) (A) (A) (A) (A) (A) (A) (A) (A) (A)
                 (A) (A) (A) (A) (A) (A) (A) (A) (A) (A) (A) (A)
                 (A) (A) (A) (A) (A) (A) (A) (A) (A) (A) (A) (A)
                 (A) (A) (A) (A) (A) (A) (A) (A) (A) (A) (A) (A)
                 (A)
       Virtual   (A) (A) (A) (A) (A) (A) (A) (A) (A) (A) (A) (A)
                 (A) (A) (A) (A) (A) (A) (A) (A) (A) (A) (A) (A)
                 (A) (A) (A) (A) (A) (A) (A) (A) (A) (A) (A) (A)
                 (A) (A) (A) (A) (A) (A) (A) (A) (A) (A) (A) (A)
                 (A) (A) (A) (A) (A) (A) (A) (A) (A) (A) (A) (A)
                 (A) (A) (A) (A) (A) (A) (A) (A) (A) (A) (A) (A)
                 (A) (A) (A) (A) (A) (A) (A) (A) (A) (A) (A) (A)
                 (A) (A) (A) (A) (A) (A) (A) (A) (A) (A) (A) (A)
                 (A) (A) (A) (A) (A) (A) (A) (A) (A) (A) (A) (A)
                 (A) (A) (A) (A) (A) (A) (A) (A) (A) (A) (A) (A)
                 (A) (A) (A) (A) (A) (A) (A) (A) (A) (A) (A) (A)
                 (A) (A) (A) (A) (A) (A) (A) (A) (A) (A) (A) (A)
                 (A) (A) (A) (A) (A) (A) (A) (A) (A) (A) (A) (A)
                 (A) (A) (A) (A) (A) (A) (A) (A) (A) (A) (A) (A)
                 (A) (A) (A) (A) (A) (A) (A) (A) (A) (A) (A) (A)
                 (A) (A) (A) (A) (A) (A) (A) (A) (A) (A) (A) (A)
                 (A) (A) (A) (A) (A) (A) (A) (A) (A) (A) (A) (A)
                 (A) (A) (A) (A) (A) (A) (A) (A) (A) (A) (A) (A)
                 (A) (A) (A) (A) (A) (A) (A) (A) (A) (A) (A) (A)
                 (A) (A) (A) (A) (A) (A) (A) (A) (A) (A) (A) (A)
                 (A) (A) (A) (A) (A) (A) (A) (A) (A) (A) (A) (A)
                 (A) (A) (A) (A) (A) (A) (A) (A) (A) (A) (A) (A)
                 (A) (A) (A) (A) (A) (A) (A) (A) (A) (A) (A) (A)
                 (A) (A) (A) (A) (A) (A) (A) (A) (A) (A) (A) (A)
                 (A) (A) (A) (A) (A) (A) (A) (A) (A) (A) (A) (A)
                 (A) (A) (A) (A) (A) (A) (A) (A) (A) (A) (A) (A)
                 (A) (A) (A) (A) (A) (A) (A) (A) (A) (A) (A) (A)
                 (A) (A) (A) (A) (A) (A) (A) (A) (A) (A) (A) (A)
                 (A) (A) (A) (A) (A) (A) (A) (A) (A) (A) (A) (A)
                 (A) (A) (A) (A) (A) (A) (A) (A) (A) (A) (A) (A)
                 (A) (A) (A) (A) (A) (A) (A) (A) (A) (A) (A) (A)
                 (A) (A) (A) (A) (A) (A) (A) (A) (A) (A) (A) (A)
                 (A) (A) (A) (A) (A) (A) (A) (A) (A) (A) (A) (A)
                 (A) (A) (A) (A) (A) (A) (A) (A) (A) (A) (A) (A)
                 (A) (A) (A) (A) (A) (A) (A) (A) (A) (A) (A) (A)
                 (A) (A) (A) (A) (A) (A) (A) (A) (A) (A) (A) (A)
                 (A) (A) (A) (A) (A) (A) (A) (A) (A) (A) (A) (A)
                 (A) (A) (A) (A) (A) (A) (A) (A) (A) (A) (A) (A)
                 (A) (A) (A) (A) (A) (A) (A) (A) (A) (A) (A) (A)
                 (A) (A) (A) (A) (A) (A) (A) (A) (A) (A) (A) (A)
                 (A) (A) (A) (A) (A) (A) (A) (A) (A) (A) (A) (A)
                 (A) (A) (A) (A) (A) (A) (A) (A) (A) (A) (A) (A)
                 (A) (A) (A) (A) (A) (A) (A) (A) (A) (A) (A) (A)
                 (A) (A) (A) (A) (A) (A) (A) (A) (A) (A) (A) (A)
                 (A) (A) (A) (A) (A) (A) (A) (A) (A) (A) (A) (A)
                 (A) (A) (A) (A) (A) (A) (A) (A) (A) (A) (A) (A)
                 (A) (A) (A) (A) (A) (A) (A) (A) (A) (A) (A) (A)
                 (A) (A) (A) (A) (A) (A) (A) (A) (A) (A) (A) (A)
                 (A) (A) (A) (A)
 The electronic state is 1-A.
 Alpha  occ. eigenvalues --  -66.01359 -19.01049 -18.91266 -18.90645 -18.90261
 Alpha  occ. eigenvalues --  -18.89845 -18.86939 -18.85753 -10.07388 -10.03905
 Alpha  occ. eigenvalues --  -10.02987 -10.02085 -10.01854 -10.01493  -5.11498
 Alpha  occ. eigenvalues --   -3.46178  -3.45994  -3.45971  -0.88349  -0.79988
 Alpha  occ. eigenvalues --   -0.78256  -0.74207  -0.72825  -0.71075  -0.68579
 Alpha  occ. eigenvalues --   -0.55428  -0.53191  -0.51311  -0.41615  -0.40869
 Alpha  occ. eigenvalues --   -0.39582  -0.36514  -0.30383  -0.29641  -0.28952
 Alpha  occ. eigenvalues --   -0.27713  -0.27075  -0.26057  -0.23467  -0.21636
 Alpha  occ. eigenvalues --   -0.20617  -0.19994  -0.19736  -0.18969  -0.17412
 Alpha  occ. eigenvalues --   -0.16684  -0.14846  -0.13368  -0.11640  -0.11315
 Alpha  occ. eigenvalues --   -0.09004  -0.08414  -0.07654  -0.06321  -0.06153
 Alpha  occ. eigenvalues --   -0.03363  -0.03084  -0.01577  -0.00669   0.00529
 Alpha  occ. eigenvalues --    0.02003
 Alpha virt. eigenvalues --    0.30757   0.35969   0.36971   0.38253   0.39148
 Alpha virt. eigenvalues --    0.40244   0.40847   0.41421   0.42451   0.43362
 Alpha virt. eigenvalues --    0.43678   0.45100   0.45421   0.46753   0.47488
 Alpha virt. eigenvalues --    0.47725   0.47999   0.49449   0.50260   0.51005
 Alpha virt. eigenvalues --    0.51061   0.53481   0.54167   0.55161   0.55497
 Alpha virt. eigenvalues --    0.57512   0.58262   0.59755   0.60884   0.62618
 Alpha virt. eigenvalues --    0.63129   0.63528   0.64961   0.65557   0.66442
 Alpha virt. eigenvalues --    0.67333   0.67519   0.67682   0.68143   0.68565
 Alpha virt. eigenvalues --    0.69832   0.70456   0.71665   0.71944   0.72775
 Alpha virt. eigenvalues --    0.73519   0.73943   0.74199   0.75080   0.75610
 Alpha virt. eigenvalues --    0.75850   0.76130   0.76711   0.77352   0.77779
 Alpha virt. eigenvalues --    0.78419   0.78721   0.79589   0.80166   0.80815
 Alpha virt. eigenvalues --    0.81412   0.81809   0.82304   0.83642   0.84107
 Alpha virt. eigenvalues --    0.85713   0.86485   0.86834   0.87171   0.88017
 Alpha virt. eigenvalues --    0.88990   0.89780   0.90593   0.91486   0.91832
 Alpha virt. eigenvalues --    0.93415   0.94363   0.97238   0.98418   0.98990
 Alpha virt. eigenvalues --    1.00506   1.01314   1.02203   1.02950   1.03869
 Alpha virt. eigenvalues --    1.05252   1.07034   1.07232   1.07862   1.08758
 Alpha virt. eigenvalues --    1.10484   1.11369   1.11979   1.12582   1.13322
 Alpha virt. eigenvalues --    1.15534   1.15800   1.16139   1.17462   1.18250
 Alpha virt. eigenvalues --    1.18613   1.19343   1.20284   1.20936   1.21153
 Alpha virt. eigenvalues --    1.22119   1.22546   1.24539   1.24943   1.25357
 Alpha virt. eigenvalues --    1.27156   1.29044   1.29543   1.30629   1.31375
 Alpha virt. eigenvalues --    1.31597   1.32677   1.33775   1.34199   1.34885
 Alpha virt. eigenvalues --    1.35958   1.37563   1.38155   1.39010   1.41127
 Alpha virt. eigenvalues --    1.41188   1.42038   1.42968   1.43784   1.45053
 Alpha virt. eigenvalues --    1.45356   1.46054   1.46746   1.47929   1.48832
 Alpha virt. eigenvalues --    1.49739   1.50877   1.51265   1.51509   1.52194
 Alpha virt. eigenvalues --    1.53873   1.54559   1.55779   1.56454   1.57337
 Alpha virt. eigenvalues --    1.57938   1.59095   1.60135   1.60362   1.62082
 Alpha virt. eigenvalues --    1.62412   1.64172   1.64373   1.66318   1.66673
 Alpha virt. eigenvalues --    1.67635   1.68208   1.68818   1.69556   1.70580
 Alpha virt. eigenvalues --    1.72403   1.73513   1.74445   1.75351   1.75578
 Alpha virt. eigenvalues --    1.77040   1.78018   1.78868   1.79733   1.80918
 Alpha virt. eigenvalues --    1.81938   1.83092   1.84938   1.85470   1.86172
 Alpha virt. eigenvalues --    1.87278   1.88672   1.90405   1.91192   1.92894
 Alpha virt. eigenvalues --    1.93266   1.94424   1.95766   1.96116   1.97437
 Alpha virt. eigenvalues --    1.98220   1.98576   2.01350   2.02068   2.04519
 Alpha virt. eigenvalues --    2.06573   2.08285   2.08793   2.13011   2.14553
 Alpha virt. eigenvalues --    2.15933   2.16293   2.18563   2.19846   2.21340
 Alpha virt. eigenvalues --    2.23767   2.24624   2.26694   2.27368   2.30858
 Alpha virt. eigenvalues --    2.32642   2.32846   2.34578   2.36502   2.37322
 Alpha virt. eigenvalues --    2.37974   2.38407   2.39693   2.40966   2.42025
 Alpha virt. eigenvalues --    2.42633   2.45543   2.46267   2.47342   2.49307
 Alpha virt. eigenvalues --    2.50747   2.51426   2.51513   2.52502   2.53391
 Alpha virt. eigenvalues --    2.54401   2.57012   2.57308   2.59778   2.60575
 Alpha virt. eigenvalues --    2.62870   2.63645   2.64451   2.66960   2.68395
 Alpha virt. eigenvalues --    2.70053   2.71244   2.73151   2.73694   2.74562
 Alpha virt. eigenvalues --    2.75916   2.76720   2.78819   2.79946   2.81416
 Alpha virt. eigenvalues --    2.85283   2.86843   2.88942   2.91855   2.93149
 Alpha virt. eigenvalues --    2.94071   2.98688   2.99620   3.00714   3.01151
 Alpha virt. eigenvalues --    3.01869   3.02711   3.04437   3.05367   3.06826
 Alpha virt. eigenvalues --    3.07844   3.09917   3.11202   3.13069   3.13894
 Alpha virt. eigenvalues --    3.16757   3.18369   3.19168   3.19568   3.21013
 Alpha virt. eigenvalues --    3.21924   3.22592   3.23973   3.25671   3.26242
 Alpha virt. eigenvalues --    3.27543   3.28286   3.29024   3.29214   3.32287
 Alpha virt. eigenvalues --    3.32517   3.33430   3.34213   3.35488   3.36442
 Alpha virt. eigenvalues --    3.37189   3.38231   3.38408   3.39786   3.41070
 Alpha virt. eigenvalues --    3.42271   3.42939   3.43677   3.45572   3.46222
 Alpha virt. eigenvalues --    3.46886   3.47626   3.48745   3.49404   3.50268
 Alpha virt. eigenvalues --    3.52180   3.52496   3.53014   3.53263   3.55783
 Alpha virt. eigenvalues --    3.56472   3.57273   3.58520   3.59421   3.59865
 Alpha virt. eigenvalues --    3.60315   3.61649   3.62163   3.63484   3.64749
 Alpha virt. eigenvalues --    3.65744   3.66653   3.67408   3.68040   3.69223
 Alpha virt. eigenvalues --    3.70832   3.72442   3.73298   3.74341   3.74781
 Alpha virt. eigenvalues --    3.75579   3.75983   3.77448   3.80027   3.81749
 Alpha virt. eigenvalues --    3.82305   3.82877   3.85498   3.88653   3.90009
 Alpha virt. eigenvalues --    3.92189   3.92368   3.93058   3.94369   3.94813
 Alpha virt. eigenvalues --    3.96432   3.98405   3.99578   4.00804   4.02971
 Alpha virt. eigenvalues --    4.03675   4.04271   4.05283   4.05817   4.06445
 Alpha virt. eigenvalues --    4.07574   4.08273   4.08906   4.10659   4.11030
 Alpha virt. eigenvalues --    4.12039   4.12634   4.13884   4.14769   4.17538
 Alpha virt. eigenvalues --    4.18022   4.20847   4.22149   4.23179   4.24019
 Alpha virt. eigenvalues --    4.25230   4.25575   4.26152   4.27819   4.29359
 Alpha virt. eigenvalues --    4.30455   4.31929   4.32323   4.34330   4.36229
 Alpha virt. eigenvalues --    4.36998   4.38422   4.39682   4.41214   4.42579
 Alpha virt. eigenvalues --    4.43355   4.44570   4.44907   4.45887   4.48052
 Alpha virt. eigenvalues --    4.48296   4.49087   4.50996   4.52027   4.52552
 Alpha virt. eigenvalues --    4.53495   4.54095   4.55329   4.57268   4.58822
 Alpha virt. eigenvalues --    4.59710   4.62693   4.63654   4.65683   4.66339
 Alpha virt. eigenvalues --    4.67760   4.68731   4.69876   4.70623   4.71454
 Alpha virt. eigenvalues --    4.73704   4.74445   4.75220   4.75889   4.78411
 Alpha virt. eigenvalues --    4.79620   4.81578   4.83102   4.84487   4.85580
 Alpha virt. eigenvalues --    4.88107   4.92290   4.92957   4.94758   5.00001
 Alpha virt. eigenvalues --    5.01748   5.03359   5.04019   5.04807   5.06355
 Alpha virt. eigenvalues --    5.06808   5.08029   5.08498   5.09568   5.10650
 Alpha virt. eigenvalues --    5.11432   5.12372   5.14784   5.17500   5.18061
 Alpha virt. eigenvalues --    5.19170   5.19691   5.20931   5.22610   5.22835
 Alpha virt. eigenvalues --    5.23895   5.25578   5.26632   5.27299   5.28129
 Alpha virt. eigenvalues --    5.29777   5.31272   5.36833   5.40901   5.41907
 Alpha virt. eigenvalues --    5.42445   5.46772   5.47111   5.47997   5.48563
 Alpha virt. eigenvalues --    5.49897   5.51929   5.52902   5.55974   5.57629
 Alpha virt. eigenvalues --    5.61231   5.61835   5.63609   5.65006   5.66006
 Alpha virt. eigenvalues --    5.68846   5.72512   5.74466   5.74825   5.76041
 Alpha virt. eigenvalues --    5.77179   5.78606   5.79265   5.80117   5.80708
 Alpha virt. eigenvalues --    5.81425   5.82402   5.83416   5.84307   5.85282
 Alpha virt. eigenvalues --    5.86225   5.87434   5.88032   5.89924   5.91054
 Alpha virt. eigenvalues --    5.91975   5.93579   5.94687   5.95069   5.96864
 Alpha virt. eigenvalues --    5.98517   6.00241   6.01071   6.01902   6.03415
 Alpha virt. eigenvalues --    6.05418   6.07042   6.08331   6.09426   6.09737
 Alpha virt. eigenvalues --    6.11588   6.12184   6.17988   6.19363   6.21029
 Alpha virt. eigenvalues --    6.23105   6.28136   6.28781   6.30694   6.34848
 Alpha virt. eigenvalues --    6.36152   6.36982   6.38942   6.43821   6.46410
 Alpha virt. eigenvalues --    6.46938   6.48814   6.53704   6.56957   6.58190
 Alpha virt. eigenvalues --    6.61909   6.62616   6.85739   6.87296   6.90090
 Alpha virt. eigenvalues --    6.92066   6.94075   6.96531   7.00966   7.01951
 Alpha virt. eigenvalues --    7.02727   7.04597   7.06310   7.10520   7.11554
 Alpha virt. eigenvalues --    7.12107   7.12690   7.13994   7.15402   7.17580
 Alpha virt. eigenvalues --    7.19533   7.22426   7.23905   7.27599   7.31424
 Alpha virt. eigenvalues --    7.34996   7.37171   7.38276   7.38911   7.40353
 Alpha virt. eigenvalues --    7.43505   7.44697   7.46352   7.48803   7.54665
 Alpha virt. eigenvalues --    7.54836   7.58742   7.62871   7.68348   7.70350
 Alpha virt. eigenvalues --    7.73472   7.76899   7.80097   7.80546   7.87375
 Alpha virt. eigenvalues --    7.97761  11.82178  23.67366  23.73781  23.79931
 Alpha virt. eigenvalues --   23.81520  23.89090  23.91771  44.26155  44.32188
 Alpha virt. eigenvalues --   44.37242  44.42959  44.55476  44.58899  44.68994
          Condensed to atoms (all electrons):
               1          2          3          4          5          6
     1  Si  11.415671   0.332350   0.294501   0.344880   0.357164   0.162701
     2  O    0.332350   8.133920  -0.027647   0.005322  -0.035354  -0.013693
     3  O    0.294501  -0.027647   8.147323  -0.033967   0.005058  -0.010872
     4  O    0.344880   0.005322  -0.033967   8.094917  -0.035194  -0.010630
     5  O    0.357164  -0.035354   0.005058  -0.035194   8.109781  -0.011037
     6  O    0.162701  -0.013693  -0.010872  -0.010630  -0.011037   8.377744
     7  O    0.381399  -0.055957  -0.058519  -0.047457  -0.045597   0.000226
     8  H   -0.045085   0.008835   0.008959   0.004961   0.004427  -0.000068
     9  C   -0.081676  -0.003124  -0.001586   0.349359  -0.139001  -0.000554
    10  H    0.006367   0.000395   0.000971  -0.049566   0.017234  -0.000283
    11  H   -0.000788   0.000043  -0.000175  -0.038429   0.010280  -0.000448
    12  C   -0.047000  -0.000088  -0.001577  -0.112222   0.356575  -0.018901
    13  H   -0.004190  -0.000226   0.000034   0.008503  -0.043982   0.000353
    14  H    0.013614   0.001008   0.000267   0.014758  -0.049352   0.027034
    15  C   -0.048698   0.373554  -0.080319  -0.000173   0.002529  -0.009079
    16  H   -0.007964  -0.044277   0.008143   0.000047  -0.000208   0.000409
    17  H    0.015761  -0.057662   0.008005   0.000186   0.000573   0.026196
    18  C   -0.027898  -0.136419   0.331659  -0.001197  -0.001614  -0.000282
    19  H    0.006937   0.015893  -0.060289   0.000685   0.000096  -0.000245
    20  H   -0.002921   0.009682  -0.036738  -0.000211   0.000050  -0.000646
    21  C   -0.007987   0.002735   0.003476  -0.003079   0.000083   0.352726
    22  H   -0.014947   0.000381   0.003877   0.000181   0.000004  -0.088663
    23  H   -0.002913  -0.000330   0.002101   0.010073   0.000208  -0.064062
    24  C   -0.004827  -0.000234   0.002343  -0.000292  -0.000183  -0.046996
    25  H    0.000123   0.000009   0.000127   0.000034   0.000004   0.007773
    26  H    0.000547  -0.000010  -0.000070   0.000001   0.000006   0.015622
    27  O   -0.000024   0.000001  -0.000002  -0.000034   0.000001  -0.003802
    28  H    0.000010  -0.000000   0.000003   0.000001  -0.000000   0.000348
               7          8          9         10         11         12
     1  Si   0.381399  -0.045085  -0.081676   0.006367  -0.000788  -0.047000
     2  O   -0.055957   0.008835  -0.003124   0.000395   0.000043  -0.000088
     3  O   -0.058519   0.008959  -0.001586   0.000971  -0.000175  -0.001577
     4  O   -0.047457   0.004961   0.349359  -0.049566  -0.038429  -0.112222
     5  O   -0.045597   0.004427  -0.139001   0.017234   0.010280   0.356575
     6  O    0.000226  -0.000068  -0.000554  -0.000283  -0.000448  -0.018901
     7  O    8.042959   0.315926  -0.001120   0.016211  -0.000388  -0.006365
     8  H    0.315926   0.617880  -0.002540  -0.000480   0.000144   0.000585
     9  C   -0.001120  -0.002540   5.081290   0.369236   0.273712   0.142609
    10  H    0.016211  -0.000480   0.369236   0.795329  -0.091689  -0.075959
    11  H   -0.000388   0.000144   0.273712  -0.091689   0.858506   0.017007
    12  C   -0.006365   0.000585   0.142609  -0.075959   0.017007   4.998411
    13  H    0.000102   0.000041   0.007880  -0.009344   0.005933   0.263880
    14  H   -0.000299   0.000035  -0.091215   0.019992  -0.007967   0.390153
    15  C   -0.017577   0.007230  -0.002760   0.000089   0.000006  -0.000202
    16  H   -0.000781   0.000309  -0.000063   0.000006   0.000000  -0.000057
    17  H   -0.001354   0.000059   0.000075   0.000001   0.000005   0.000796
    18  C    0.026436  -0.024560   0.001139   0.000340  -0.000059  -0.001512
    19  H    0.003874  -0.002359   0.000512  -0.000143   0.000005   0.000039
    20  H    0.000355   0.001737  -0.000034   0.000003  -0.000004  -0.000021
    21  C   -0.000794  -0.000034  -0.000249  -0.000110   0.000312   0.002328
    22  H    0.000070  -0.000008   0.000154  -0.000003  -0.000042  -0.002333
    23  H    0.000130  -0.000031   0.000595   0.000238  -0.000158   0.000596
    24  C   -0.000008  -0.000002   0.000070  -0.000005  -0.000000  -0.000671
    25  H    0.000000   0.000000   0.000010   0.000000   0.000001  -0.000080
    26  H   -0.000000   0.000000   0.000005   0.000000   0.000002   0.000113
    27  O   -0.000000   0.000000   0.000082  -0.000000  -0.000011  -0.000573
    28  H   -0.000000  -0.000000  -0.000004  -0.000000   0.000000   0.000033
              13         14         15         16         17         18
     1  Si  -0.004190   0.013614  -0.048698  -0.007964   0.015761  -0.027898
     2  O   -0.000226   0.001008   0.373554  -0.044277  -0.057662  -0.136419
     3  O    0.000034   0.000267  -0.080319   0.008143   0.008005   0.331659
     4  O    0.008503   0.014758  -0.000173   0.000047   0.000186  -0.001197
     5  O   -0.043982  -0.049352   0.002529  -0.000208   0.000573  -0.001614
     6  O    0.000353   0.027034  -0.009079   0.000409   0.026196  -0.000282
     7  O    0.000102  -0.000299  -0.017577  -0.000781  -0.001354   0.026436
     8  H    0.000041   0.000035   0.007230   0.000309   0.000059  -0.024560
     9  C    0.007880  -0.091215  -0.002760  -0.000063   0.000075   0.001139
    10  H   -0.009344   0.019992   0.000089   0.000006   0.000001   0.000340
    11  H    0.005933  -0.007967   0.000006   0.000000   0.000005  -0.000059
    12  C    0.263880   0.390153  -0.000202  -0.000057   0.000796  -0.001512
    13  H    0.888445  -0.082728  -0.000032  -0.000007   0.000007  -0.000010
    14  H   -0.082728   0.748463   0.000401   0.000007  -0.000285   0.000072
    15  C   -0.000032   0.000401   4.911144   0.291373   0.407315   0.163070
    16  H   -0.000007   0.000007   0.291373   0.865316  -0.084581   0.001164
    17  H    0.000007  -0.000285   0.407315  -0.084581   0.788814  -0.114176
    18  C   -0.000010   0.000072   0.163070   0.001164  -0.114176   5.080403
    19  H    0.000001   0.000004  -0.085250  -0.009869   0.021026   0.339194
    20  H    0.000000   0.000008   0.012775   0.004931  -0.006315   0.298779
    21  C    0.000078  -0.003718  -0.023457   0.001511  -0.001804   0.010257
    22  H    0.000023   0.001617   0.045668  -0.001468  -0.037900  -0.026438
    23  H   -0.000021  -0.000567  -0.007854   0.000008   0.006151   0.004664
    24  C   -0.000017   0.001143   0.004145  -0.000096  -0.001343  -0.001874
    25  H    0.000001   0.000087  -0.000288   0.000006   0.000220   0.000078
    26  H    0.000000  -0.000181  -0.001083   0.000021   0.001775   0.000236
    27  O    0.000000   0.001114   0.000017   0.000000  -0.000039  -0.000004
    28  H   -0.000000  -0.000059   0.000001  -0.000000   0.000002   0.000000
              19         20         21         22         23         24
     1  Si   0.006937  -0.002921  -0.007987  -0.014947  -0.002913  -0.004827
     2  O    0.015893   0.009682   0.002735   0.000381  -0.000330  -0.000234
     3  O   -0.060289  -0.036738   0.003476   0.003877   0.002101   0.002343
     4  O    0.000685  -0.000211  -0.003079   0.000181   0.010073  -0.000292
     5  O    0.000096   0.000050   0.000083   0.000004   0.000208  -0.000183
     6  O   -0.000245  -0.000646   0.352726  -0.088663  -0.064062  -0.046996
     7  O    0.003874   0.000355  -0.000794   0.000070   0.000130  -0.000008
     8  H   -0.002359   0.001737  -0.000034  -0.000008  -0.000031  -0.000002
     9  C    0.000512  -0.000034  -0.000249   0.000154   0.000595   0.000070
    10  H   -0.000143   0.000003  -0.000110  -0.000003   0.000238  -0.000005
    11  H    0.000005  -0.000004   0.000312  -0.000042  -0.000158  -0.000000
    12  C    0.000039  -0.000021   0.002328  -0.002333   0.000596  -0.000671
    13  H    0.000001   0.000000   0.000078   0.000023  -0.000021  -0.000017
    14  H    0.000004   0.000008  -0.003718   0.001617  -0.000567   0.001143
    15  C   -0.085250   0.012775  -0.023457   0.045668  -0.007854   0.004145
    16  H   -0.009869   0.004931   0.001511  -0.001468   0.000008  -0.000096
    17  H    0.021026  -0.006315  -0.001804  -0.037900   0.006151  -0.001343
    18  C    0.339194   0.298779   0.010257  -0.026438   0.004664  -0.001874
    19  H    0.883318  -0.088385  -0.000239   0.000321   0.000085   0.000070
    20  H   -0.088385   0.816627  -0.002058   0.006466  -0.000679   0.000012
    21  C   -0.000239  -0.002058   4.836396   0.199871   0.448913   0.138060
    22  H    0.000321   0.006466   0.199871   1.070946  -0.111636   0.016233
    23  H    0.000085  -0.000679   0.448913  -0.111636   0.751144  -0.095192
    24  C    0.000070   0.000012   0.138060   0.016233  -0.095192   5.037006
    25  H    0.000002   0.000015  -0.014499   0.008189   0.002302   0.325535
    26  H   -0.000002  -0.000012  -0.028163  -0.028182   0.023694   0.361156
    27  O   -0.000000   0.000000  -0.070082   0.005578   0.003352   0.332222
    28  H    0.000000  -0.000000   0.015294  -0.001030  -0.000702  -0.044160
              25         26         27         28
     1  Si   0.000123   0.000547  -0.000024   0.000010
     2  O    0.000009  -0.000010   0.000001  -0.000000
     3  O    0.000127  -0.000070  -0.000002   0.000003
     4  O    0.000034   0.000001  -0.000034   0.000001
     5  O    0.000004   0.000006   0.000001  -0.000000
     6  O    0.007773   0.015622  -0.003802   0.000348
     7  O    0.000000  -0.000000  -0.000000  -0.000000
     8  H    0.000000   0.000000   0.000000  -0.000000
     9  C    0.000010   0.000005   0.000082  -0.000004
    10  H    0.000000   0.000000  -0.000000  -0.000000
    11  H    0.000001   0.000002  -0.000011   0.000000
    12  C   -0.000080   0.000113  -0.000573   0.000033
    13  H    0.000001   0.000000   0.000000  -0.000000
    14  H    0.000087  -0.000181   0.001114  -0.000059
    15  C   -0.000288  -0.001083   0.000017   0.000001
    16  H    0.000006   0.000021   0.000000  -0.000000
    17  H    0.000220   0.001775  -0.000039   0.000002
    18  C    0.000078   0.000236  -0.000004   0.000000
    19  H    0.000002  -0.000002  -0.000000   0.000000
    20  H    0.000015  -0.000012   0.000000  -0.000000
    21  C   -0.014499  -0.028163  -0.070082   0.015294
    22  H    0.008189  -0.028182   0.005578  -0.001030
    23  H    0.002302   0.023694   0.003352  -0.000702
    24  C    0.325535   0.361156   0.332222  -0.044160
    25  H    0.789459  -0.061187  -0.061372  -0.011782
    26  H   -0.061187   0.752028  -0.056909  -0.006590
    27  O   -0.061372  -0.056909   7.868142   0.288459
    28  H   -0.011782  -0.006590   0.288459   0.660763
 Mulliken charges:
               1
     1  Si   0.964893
     2  O   -0.509109
     3  O   -0.505089
     4  O   -0.501454
     5  O   -0.502550
     6  O   -0.690869
     7  O   -0.551473
     8  H    0.104040
     9  C    0.097198
    10  H    0.001170
    11  H   -0.025796
    12  C    0.094434
    13  H   -0.034723
    14  H    0.016595
    15  C    0.057456
    16  H   -0.023882
    17  H    0.028492
    18  C    0.078551
    19  H   -0.025281
    20  H   -0.013416
    21  C    0.144232
    22  H   -0.046929
    23  H    0.029892
    24  C   -0.022094
    25  H    0.015232
    26  H    0.027182
    27  O   -0.306115
    28  H    0.099414
 Sum of Mulliken charges =  -2.00000
 Mulliken charges with hydrogens summed into heavy atoms:
               1
     1  Si   0.964893
     2  O   -0.509109
     3  O   -0.505089
     4  O   -0.501454
     5  O   -0.502550
     6  O   -0.690869
     7  O   -0.447433
     9  C    0.072572
    12  C    0.076305
    15  C    0.062066
    18  C    0.039854
    21  C    0.127195
    24  C    0.020321
    27  O   -0.206701
 Electronic spatial extent (au):  <R**2>=           3302.4501
 Charge=             -2.0000 electrons
 Dipole moment (field-independent basis, Debye):
    X=             -4.4844    Y=             -2.4603    Z=             -1.0538  Tot=              5.2224
 Quadrupole moment (field-independent basis, Debye-Ang):
   XX=           -125.9056   YY=           -112.0539   ZZ=           -117.7021
   XY=             -1.2908   XZ=             -0.3960   YZ=              0.3749
 Traceless Quadrupole moment (field-independent basis, Debye-Ang):
   XX=             -7.3517   YY=              6.5000   ZZ=              0.8518
   XY=             -1.2908   XZ=             -0.3960   YZ=              0.3749
 Octapole moment (field-independent basis, Debye-Ang**2):
  XXX=            -57.9351  YYY=              2.3355  ZZZ=             -1.8896  XYY=             -5.8963
  XXY=            -12.8075  XXZ=             -0.0384  XZZ=            -14.9336  YZZ=              0.7620
  YYZ=             -0.1132  XYZ=              1.6260
 Hexadecapole moment (field-independent basis, Debye-Ang**3):
 XXXX=          -2264.8913 YYYY=          -1715.9629 ZZZZ=           -542.1870 XXXY=            -88.7312
 XXXZ=            -17.1122 YYYX=            -20.9834 YYYZ=             -0.9425 ZZZX=             -5.3069
 ZZZY=              0.3346 XXYY=           -690.0042 XXZZ=           -514.7875 YYZZ=           -386.5997
 XXYZ=              8.9190 YYXZ=             -9.0003 ZZXY=             -6.0162
 N-N= 1.200647335441D+03 E-N=-4.926279913623D+03  KE= 1.049025439027D+03
   1 Symmetry operations used in ECPInt.
 ECPInt:  NShTT=   29161 NPrTT=   80163 LenC2=   26483 LenP2D=   54557.
 LDataN:  DoStor=T MaxTD1= 7 Len=  274
 Calling FoFJK, ICntrl=      2127 FMM=F ISym2X=0 I1Cent= 0 IOpClX= 0 NMat=1 NMatS=1 NMatT=0.
 ***** Axes restored to original set *****
 -------------------------------------------------------------------
 Center     Atomic                   Forces (Hartrees/Bohr)
 Number     Number              X              Y              Z
 -------------------------------------------------------------------
      1       14          -0.030157342    0.029523838    0.003150369
      2        8          -0.004108261   -0.034584402    0.005085451
      3        8           0.021466417    0.027927672   -0.015336373
      4        8           0.017705129    0.025091643    0.005799153
      5        8           0.000132860   -0.033887045   -0.011773966
      6        8          -0.027829631   -0.028154972   -0.028436804
      7        8           0.012904586   -0.006311217    0.009808018
      8        1           0.001612751    0.001747748   -0.001666896
      9        6           0.013616148   -0.029522338   -0.027469879
     10        1          -0.012747945    0.014878619   -0.002192838
     11        1          -0.003468393   -0.013979069    0.011873044
     12        6          -0.011617497    0.014158435   -0.024310854
     13        1           0.003231103    0.017291557    0.016720510
     14        1           0.011705344   -0.015760410    0.001681687
     15        6          -0.018529008    0.018289538    0.028567313
     16        1           0.004996518    0.015717668   -0.018629158
     17        1           0.012224548   -0.015972146   -0.001282519
     18        6           0.020686087   -0.026032794    0.040990869
     19        1          -0.012073235    0.012707985   -0.004626425
     20        1          -0.005185825   -0.017328206   -0.015465640
     21        6           0.029953006    0.048853082    0.047115473
     22        1          -0.000921500   -0.006497809   -0.016614412
     23        1          -0.014349115   -0.009189497    0.002095567
     24        6          -0.016066818    0.024325809    0.019939257
     25        1          -0.006036927   -0.021120394   -0.014783737
     26        1           0.015089312    0.006817936   -0.006680068
     27        8          -0.007999853    0.006129783   -0.000677102
     28        1           0.005767543   -0.005121013   -0.002880040
 -------------------------------------------------------------------
 Cartesian Forces:  Max     0.048853082 RMS     0.018472440

 GradGradGradGradGradGradGradGradGradGradGradGradGradGradGradGradGradGrad
 Berny optimization.
 FormGI is forming the generalized inverse of G from B-inverse, IUseBI=4.
 Internal  Forces:  Max     0.051844702 RMS     0.009873484
 Search for a local minimum.
 Step number   1 out of a maximum of  168
 All quantities printed in internal units (Hartrees-Bohrs-Radians)
 Mixed Optimization -- RFO/linear search
 Second derivative matrix not updated -- first step.
 ITU=  0
     Eigenvalues ---    0.00230   0.00230   0.00863   0.01032   0.01094
     Eigenvalues ---    0.01185   0.01194   0.01285   0.01428   0.04762
     Eigenvalues ---    0.04785   0.04812   0.04957   0.05034   0.05268
     Eigenvalues ---    0.05777   0.05788   0.06086   0.06168   0.06239
     Eigenvalues ---    0.06714   0.07199   0.08010   0.08968   0.08978
     Eigenvalues ---    0.09102   0.09580   0.09759   0.10785   0.10844
     Eigenvalues ---    0.10997   0.11039   0.11303   0.11330   0.11397
     Eigenvalues ---    0.12191   0.13386   0.13759   0.13845   0.14432
     Eigenvalues ---    0.16000   0.16000   0.16151   0.18239   0.20293
     Eigenvalues ---    0.20545   0.21133   0.22099   0.22108   0.22230
     Eigenvalues ---    0.22510   0.22541   0.24303   0.25000   0.27751
     Eigenvalues ---    0.28852   0.30119   0.36263   0.36497   0.36633
     Eigenvalues ---    0.36651   0.36707   0.37041   0.37170   0.37231
     Eigenvalues ---    0.37274   0.37304   0.37364   0.37549   0.37600
     Eigenvalues ---    0.37897   0.38037   0.39908   0.41383   0.42035
     Eigenvalues ---    0.57951   0.582351000.000001000.000001000.00000
     Eigenvalues --- 1000.000001000.000001000.000001000.000001000.00000
     Eigenvalues --- 1000.000001000.000001000.000001000.000001000.00000
     Eigenvalues --- 1000.000001000.000001000.000001000.000001000.00000
     Eigenvalues --- 1000.000001000.000001000.000001000.000001000.00000
     Eigenvalues --- 1000.000001000.000001000.000001000.000001000.00000
     Eigenvalues --- 1000.000001000.000001000.000001000.000001000.00000
     Eigenvalues --- 1000.000001000.000001000.000001000.000001000.00000
     Eigenvalues --- 1000.000001000.000001000.000001000.000001000.00000
     Eigenvalues --- 1000.000001000.000001000.000001000.000001000.00000
     Eigenvalues --- 1000.000001000.000001000.000001000.000001000.00000
     Eigenvalues --- 1000.000001000.000001000.000001000.000001000.00000
     Eigenvalues --- 1000.000001000.000001000.000001000.000001000.00000
     Eigenvalues --- 1000.000001000.000001000.000001000.000001000.00000
     Eigenvalues --- 1000.000001000.000001000.000001000.000001000.00000
     Eigenvalues --- 1000.000001000.000001000.000001000.000001000.00000
     Eigenvalues --- 1000.000001000.000001000.000001000.00000
 RFO step:  Lambda=-5.17496490D-02 EMin= 2.30000000D-03
 Linear search not attempted -- first point.
 Maximum step size (   0.300) exceeded in Quadratic search.
    -- Step size scaled by   0.766
 Iteration  1 RMS(Cart)=  0.07413529 RMS(Int)=  0.00149455
 Iteration  2 RMS(Cart)=  0.00277866 RMS(Int)=  0.00055787
 Iteration  3 RMS(Cart)=  0.00000250 RMS(Int)=  0.00055787
 Iteration  4 RMS(Cart)=  0.00000000 RMS(Int)=  0.00055787
 Iteration  1 RMS(Cart)=  0.00000000 RMS(Int)=  0.00000000
 Variable       Old X    -DE/DX   Delta X   Delta X   Delta X     New X
                                 (Linear)    (Quad)   (Total)
    R1        3.52602  -0.02105   0.00000  -0.05900  -0.05885   3.46717
    R2        3.49907  -0.01428   0.00000  -0.04135  -0.04110   3.45797
    R3        3.43551  -0.01797   0.00000  -0.05012  -0.04932   3.38618
    R4        3.49013  -0.02570   0.00000  -0.07134  -0.07068   3.41945
    R5        4.59581  -0.02754   0.00000   0.00000  -0.00000   4.59581
    R6        3.49607  -0.01478   0.00000  -0.04084  -0.04084   3.45523
    R7        2.67166  -0.01378   0.00000  -0.02103  -0.02116   2.65050
    R8        2.72934  -0.03148   0.00000  -0.05604  -0.05605   2.67329
    R9        2.72005  -0.02771   0.00000  -0.04803  -0.04839   2.67166
   R10        2.66298  -0.00974   0.00000  -0.01340  -0.01392   2.64906
   R11        2.76403  -0.05184   0.00000  -0.09494  -0.09494   2.66908
   R12        1.79300   0.00166   0.00000   0.00201   0.00201   1.79501
   R13        2.02200   0.01967   0.00000   0.03552   0.03552   2.05751
   R14        2.03312   0.01798   0.00000   0.03304   0.03304   2.06616
   R15        2.84119   0.00403   0.00000   0.01180   0.01088   2.85207
   R16        2.02000   0.02402   0.00000   0.04323   0.04323   2.06323
   R17        2.02290   0.01963   0.00000   0.03549   0.03549   2.05840
   R18        2.01727   0.02470   0.00000   0.04427   0.04427   2.06154
   R19        2.02135   0.01991   0.00000   0.03592   0.03592   2.05727
   R20        2.86767  -0.00244   0.00000  -0.00392  -0.00427   2.86340
   R21        2.02991   0.01775   0.00000   0.03246   0.03246   2.06236
   R22        2.01651   0.02329   0.00000   0.04169   0.04169   2.05819
   R23        2.03673   0.01544   0.00000   0.02854   0.02854   2.06526
   R24        2.03076   0.01631   0.00000   0.02986   0.02986   2.06061
   R25        2.92685  -0.01494   0.00000  -0.03474  -0.03474   2.89211
   R26        2.01012   0.02629   0.00000   0.04657   0.04657   2.05669
   R27        2.02484   0.01783   0.00000   0.03234   0.03234   2.05718
   R28        2.71679  -0.00388   0.00000  -0.00658  -0.00658   2.71020
   R29        1.79065   0.00720   0.00000   0.00870   0.00870   1.79934
    A1        1.57839  -0.00418   0.00000  -0.01240  -0.01289   1.56550
    A2        1.56308   0.00206   0.00000   0.00624   0.00393   1.56701
    A3        1.56395  -0.00640   0.00000  -0.03249  -0.03260   1.53136
    A4        1.57733   0.00765   0.00000   0.03939   0.03963   1.61696
    A5        1.56327   0.00101   0.00000  -0.00023  -0.00294   1.56033
    A6        1.58348  -0.00870   0.00000  -0.04693  -0.04696   1.53652
    A7        1.55642   0.01430   0.00000   0.07708   0.07712   1.63354
    A8        1.57844   0.00111   0.00000   0.00640   0.00472   1.58316
    A9        1.57764  -0.00720   0.00000  -0.04367  -0.04351   1.53413
   A10        1.56426   0.00594   0.00000   0.03674   0.03683   1.60109
   A11        1.55818  -0.00781   0.00000  -0.04740  -0.04738   1.51080
   A12        1.58510   0.00221   0.00000   0.01725   0.01725   1.60235
   A13        1.83929   0.00327   0.00000   0.02506   0.02509   1.86438
   A14        1.83394   0.00897   0.00000   0.03451   0.03495   1.86888
   A15        1.84163   0.00571   0.00000   0.01740   0.01862   1.86025
   A16        1.84383   0.00154   0.00000   0.01529   0.01610   1.85993
   A17        1.91194   0.00325   0.00000   0.00825   0.00825   1.92019
   A18        1.89354  -0.00125   0.00000  -0.00450  -0.00450   1.88904
   A19        1.93423  -0.00205   0.00000  -0.01485  -0.01482   1.91941
   A20        1.93621   0.00125   0.00000  -0.00085  -0.00046   1.93575
   A21        1.83168  -0.00362   0.00000  -0.00577  -0.00650   1.82518
   A22        1.89219   0.00067   0.00000   0.00821   0.00808   1.90027
   A23        1.91156   0.00086   0.00000  -0.00129  -0.00115   1.91040
   A24        1.95800   0.00275   0.00000   0.01369   0.01374   1.97174
   A25        1.82684   0.00032   0.00000   0.00586   0.00494   1.83178
   A26        1.93726   0.00063   0.00000   0.00264   0.00291   1.94016
   A27        1.93443  -0.00150   0.00000  -0.01019  -0.01013   1.92429
   A28        1.94914   0.00407   0.00000   0.01481   0.01494   1.96409
   A29        1.91856  -0.00462   0.00000  -0.01878  -0.01857   1.89998
   A30        1.89738   0.00097   0.00000   0.00510   0.00511   1.90249
   A31        1.93941   0.00102   0.00000   0.00764   0.00761   1.94702
   A32        1.91985  -0.00244   0.00000  -0.01073  -0.01049   1.90936
   A33        1.83961   0.00241   0.00000   0.00758   0.00676   1.84637
   A34        1.90112   0.00044   0.00000   0.00024   0.00026   1.90138
   A35        1.94640   0.00353   0.00000   0.01357   0.01374   1.96015
   A36        1.91696  -0.00509   0.00000  -0.01880  -0.01874   1.89822
   A37        1.83619  -0.00376   0.00000  -0.00492  -0.00540   1.83079
   A38        1.93470  -0.00105   0.00000  -0.00825  -0.00809   1.92661
   A39        1.94318   0.00129   0.00000   0.00041   0.00044   1.94362
   A40        1.90357   0.00078   0.00000  -0.00347  -0.00357   1.90000
   A41        1.94556   0.00443   0.00000   0.02202   0.02226   1.96781
   A42        1.90008  -0.00167   0.00000  -0.00568  -0.00574   1.89433
   A43        1.90015   0.00640   0.00000   0.02296   0.02255   1.92270
   A44        1.89441   0.00522   0.00000   0.03097   0.03085   1.92527
   A45        1.95449  -0.00432   0.00000  -0.00984  -0.00990   1.94459
   A46        1.90336  -0.00074   0.00000  -0.00820  -0.00872   1.89464
   A47        1.91724  -0.00756   0.00000  -0.03952  -0.03962   1.87761
   A48        1.89350   0.00117   0.00000   0.00424   0.00416   1.89766
   A49        1.90971  -0.00163   0.00000  -0.00650  -0.00654   1.90318
   A50        1.90773  -0.00181   0.00000  -0.00733  -0.00737   1.90036
   A51        1.92793   0.00299   0.00000   0.00955   0.00956   1.93749
   A52        1.91875   0.00015   0.00000  -0.00304  -0.00310   1.91565
   A53        1.88900   0.00017   0.00000   0.00386   0.00387   1.89287
   A54        1.91067   0.00015   0.00000   0.00355   0.00357   1.91424
   A55        1.90727  -0.00707   0.00000  -0.02557  -0.02557   1.88170
   A56        3.14166  -0.00316   0.00000  -0.01263  -0.01584   3.12582
   A57        3.14147  -0.00212   0.00000  -0.00617  -0.00896   3.13251
   A58        3.14128   0.00125   0.00000   0.00690   0.00703   3.14831
   A59        3.14159  -0.01364   0.00000  -0.07633  -0.07562   3.06598
   A60        3.14152   0.01650   0.00000   0.09429   0.09405   3.23557
   A61        3.13989   0.00561   0.00000   0.03021   0.03017   3.17007
    D1       -0.29288   0.00463   0.00000   0.01803   0.01778  -0.27510
    D2        2.84879  -0.01187   0.00000  -0.07626  -0.07627   2.77252
    D3        1.29055  -0.00409   0.00000  -0.02906  -0.02894   1.26161
    D4       -1.84934  -0.00970   0.00000  -0.05927  -0.05911  -1.90846
    D5       -0.27450  -0.00504   0.00000  -0.00277  -0.00236  -0.27687
    D6        2.86709   0.00861   0.00000   0.07356   0.07325   2.94034
    D7       -1.83855   0.00148   0.00000   0.03024   0.03017  -1.80838
    D8        1.30272   0.00278   0.00000   0.03738   0.03713   1.33985
    D9       -2.86689  -0.01087   0.00000  -0.07569  -0.07561  -2.94251
   D10        0.27463   0.00562   0.00000   0.01861   0.01886   0.29349
   D11        1.83286  -0.00223   0.00000  -0.02909  -0.02907   1.80379
   D12       -1.31043   0.00338   0.00000   0.00112   0.00117  -1.30926
   D13       -2.84525   0.00953   0.00000   0.04718   0.04757  -2.79767
   D14        0.29635  -0.00411   0.00000  -0.02914  -0.02919   0.26715
   D15       -1.28120   0.00317   0.00000   0.01497   0.01503  -1.26616
   D16        1.86072   0.00187   0.00000   0.00783   0.00793   1.86865
   D17       -1.83933  -0.00024   0.00000  -0.02960  -0.03013  -1.86946
   D18       -0.26102  -0.00444   0.00000  -0.04210  -0.04160  -0.30262
   D19        1.30234  -0.00358   0.00000  -0.04319  -0.04338   1.25895
   D20        2.88069  -0.00243   0.00000  -0.03657  -0.03634   2.84435
   D21        0.72987  -0.00340   0.00000  -0.02024  -0.01854   0.71134
   D22       -0.84843   0.00079   0.00000  -0.00777  -0.00862  -0.85705
   D23       -2.41179  -0.00005   0.00000  -0.00652  -0.00746  -2.41925
   D24        2.29304  -0.00122   0.00000  -0.01333  -0.01324   2.27980
   D25        2.87100  -0.00117   0.00000  -0.01237  -0.01256   2.85844
   D26       -1.30550  -0.00158   0.00000  -0.01423  -0.01429  -1.31979
   D27        0.76001  -0.00747   0.00000  -0.03762  -0.03786   0.72214
   D28        0.74141  -0.00158   0.00000  -0.02488  -0.02518   0.71623
   D29       -1.31388   0.00018   0.00000  -0.01377  -0.01390  -1.32778
   D30        2.85136   0.00215   0.00000  -0.00113  -0.00140   2.84996
   D31        1.31394  -0.00146   0.00000  -0.00256  -0.00276   1.31118
   D32       -2.86632  -0.00115   0.00000  -0.00268  -0.00274  -2.86906
   D33       -0.74798   0.00063   0.00000   0.00979   0.00955  -0.73843
   D34       -0.76382   0.00749   0.00000   0.04356   0.04350  -0.72032
   D35       -2.86918   0.00210   0.00000   0.02093   0.02094  -2.84824
   D36        1.30369   0.00146   0.00000   0.01958   0.01938   1.32308
   D37        1.17793   0.00339   0.00000   0.00563   0.00602   1.18395
   D38       -0.89187  -0.00234   0.00000  -0.01529  -0.01553  -0.90739
   D39       -2.98180  -0.00456   0.00000  -0.03482  -0.03498  -3.01678
   D40        1.01357  -0.00645   0.00000  -0.04471  -0.04498   0.96859
   D41        3.11101  -0.00332   0.00000  -0.03005  -0.03018   3.08083
   D42       -1.06469  -0.00255   0.00000  -0.02660  -0.02667  -1.09136
   D43       -1.06365  -0.00247   0.00000  -0.02344  -0.02354  -1.08719
   D44        1.03379   0.00065   0.00000  -0.00878  -0.00874   1.02505
   D45        3.14128   0.00142   0.00000  -0.00533  -0.00524   3.13604
   D46        3.11755  -0.00569   0.00000  -0.04183  -0.04210   3.07545
   D47       -1.06819  -0.00257   0.00000  -0.02717  -0.02730  -1.09549
   D48        1.03929  -0.00180   0.00000  -0.02372  -0.02379   1.01550
   D49       -1.01678   0.00797   0.00000   0.05851   0.05846  -0.95832
   D50        1.05945   0.00508   0.00000   0.04442   0.04435   1.10381
   D51       -3.12517   0.00630   0.00000   0.04893   0.04892  -3.07625
   D52       -3.12320   0.00328   0.00000   0.03704   0.03699  -3.08621
   D53       -1.04697   0.00039   0.00000   0.02295   0.02288  -1.02408
   D54        1.05159   0.00161   0.00000   0.02746   0.02745   1.07904
   D55        1.05066   0.00386   0.00000   0.04053   0.04045   1.09111
   D56        3.12689   0.00096   0.00000   0.02645   0.02634  -3.12995
   D57       -1.05773   0.00218   0.00000   0.03095   0.03091  -1.02682
   D58        3.14040   0.00348   0.00000   0.03344   0.03331  -3.10948
   D59       -1.04080   0.00156   0.00000   0.02122   0.02114  -1.01965
   D60        1.06254   0.00246   0.00000   0.02691   0.02680   1.08935
   D61       -1.02916   0.00350   0.00000   0.02874   0.02875  -1.00041
   D62        1.07283   0.00158   0.00000   0.01653   0.01659   1.08941
   D63       -3.10702   0.00249   0.00000   0.02221   0.02225  -3.08477
   D64        1.04994  -0.00110   0.00000  -0.00174  -0.00169   1.04824
   D65       -3.13126  -0.00303   0.00000  -0.01396  -0.01386   3.13807
   D66       -1.02792  -0.00212   0.00000  -0.00827  -0.00820  -1.03612
   D67        3.07146   0.00037   0.00000   0.00411   0.00411   3.07558
   D68        0.98108   0.00048   0.00000   0.00400   0.00398   0.98506
   D69       -1.11014   0.00011   0.00000   0.00331   0.00332  -1.10682
         Item               Value     Threshold  Converged?
 Maximum Force            0.051845     0.000450     NO 
 RMS     Force            0.009659     0.000300     NO 
 Maximum Displacement     0.237822     0.001800     NO 
 RMS     Displacement     0.074438     0.001200     NO 
 Predicted change in Energy=-2.848984D-02
 GradGradGradGradGradGradGradGradGradGradGradGradGradGradGradGradGradGrad

                          Input orientation:                          
 ---------------------------------------------------------------------
 Center     Atomic      Atomic             Coordinates (Angstroms)
 Number     Number       Type             X           Y           Z
 ---------------------------------------------------------------------
      1         14           0       -0.318140    0.284902    0.016274
      2          8           0        0.585153    1.208904   -1.286252
[...]
 026504,0.00010386,0.00010645,-0.00007419,0.00005604,-0.00001964,-0.000
 01280,-0.00026808,-0.00006317,0.00004614,0.00000160,-0.00005395,0.0000
 4147,-0.00000292,-0.00015160,-0.00028595,0.00001248,0.00032132,0.00008
 460,-0.00006749,-0.00008296,-0.00005100,0.00003495,0.00018890,-0.00023
 082,0.00000095,-0.00034961,0.00007350,-0.00003941,0.00010750,0.0000755
 1,-0.00002020,-0.00012446,-0.00008033,-0.00029671,0.00038128,0.0000213
 5,0.00004989,0.00002555,-0.00006142,0.00000517,0.00014334,-0.25907393,
 -0.01844939,-0.04513551,0.29135783,-0.00376077,-0.00173498,-0.00089736
 ,0.00056769,-0.00002569,0.00037030,0.00100046,0.00047197,-0.00046721,0
 .00056606,0.00060974,0.00069566,0.00062347,-0.00015362,-0.00008126,-0.
 04074865,-0.02292646,-0.00690855,0.00018417,0.00032654,0.00006879,-0.0
 0005376,0.00004834,-0.00004558,-0.00024621,-0.00016171,-0.00087103,-0.
 00001953,0.00018609,0.00024004,0.00001431,-0.00001990,0.00012124,-0.00
 030615,0.00013180,0.00019214,0.00012928,-0.00004203,-0.00003893,-0.000
 01653,-0.00002765,0.00027032,-0.00019967,0.00002758,-0.00033827,0.0001
 0499,-0.00000031,0.00006925,0.00009457,-0.00004847,-0.00016090,-0.0006
 0385,0.00004476,0.00094696,0.00004470,0.00016119,-0.00033529,0.0000787
 4,-0.00009666,-0.00012893,-0.01178335,-0.04514162,-0.00286189,0.030295
 53,0.06209802,-0.00143688,0.00086603,0.00175380,-0.00012575,-0.0003241
 3,0.00007307,0.00024964,0.00005354,-0.00002149,0.00024904,0.00109158,-
 0.00033482,0.00035059,0.00002624,-0.00021835,-0.00109402,-0.00520019,0
 .00497865,0.00015365,-0.00007586,-0.00026060,-0.00002241,0.00006079,-0
 .00001436,-0.00001599,-0.00032882,-0.00059001,-0.00002925,0.00011383,0
 .00010352,0.00002174,-0.00002900,-0.00004159,-0.00023125,-0.00002743,0
 .00005252,0.00005623,0.00002569,-0.00001314,0.00002745,0.00003100,0.00
 004840,0.00012535,-0.00003829,-0.00008809,-0.00003374,-0.00005381,0.00
 003039,-0.00000524,-0.00000710,-0.00001257,0.00028543,0.00015100,-0.00
 073870,0.00000382,-0.00011116,0.00023049,-0.00003991,0.00001646,0.0000
 7731,-0.05163622,-0.00507510,-0.06093712,0.05279731,0.00651898,0.06367
 129,-0.00046581,-0.00080064,-0.00074358,0.00019086,0.00010535,0.000028
 53,0.00033235,0.00122031,-0.00039532,0.00000361,0.00000661,0.00055927,
 -0.00001380,0.00001191,0.00024717,0.00856505,-0.00488494,0.00860751,-0
 .00005206,0.00018839,0.00010426,0.00000213,-0.00001469,-0.00000743,-0.
 00004479,0.00015010,-0.00039860,-0.00003591,0.00000522,0.00008738,-0.0
 0006783,-0.00006589,0.00015814,0.00002172,0.00009162,-0.00008359,0.000
 00337,0.00001698,0.00003649,0.00008353,-0.00001960,-0.00006902,-0.0000
 6017,-0.00003044,0.00002553,0.00005097,0.00002947,-0.00002572,0.000061
 80,-0.00004257,0.00004982,-0.00024037,-0.00005538,0.00074438,-0.000017
 31,0.00010813,-0.00015481,-0.00002058,-0.00007022,-0.00004960,-0.06265
 455,0.01200788,-0.03443297,-0.00522645,0.01033580,-0.02823877,0.055897
 37,-0.00603815,0.00416375,0.00080023,0.00048035,-0.00140529,0.00147883
 ,0.00116153,0.00023742,0.00102893,0.00100653,0.00011749,-0.00123642,0.
 00045735,-0.00053293,-0.00178938,-0.00207163,-0.04515667,0.02885294,0.
 00046462,-0.00028690,-0.00018378,-0.00013677,0.00013186,0.00002412,-0.
 00002616,-0.00013268,0.00099514,0.00005220,0.00000023,-0.00017783,0.00
 013931,0.00025493,-0.00036676,0.00002716,-0.00068520,0.00104256,0.0000
 0059,-0.00007180,-0.00025143,-0.00036515,0.00027394,0.00016966,-0.0000
 9320,-0.00028825,-0.00078188,0.00004428,-0.00018912,0.00026372,0.00014
 402,-0.00006027,-0.00027431,0.00001307,-0.00009732,-0.00078624,0.00010
 941,-0.00004768,0.00019451,-0.00000654,0.00019581,0.00016883,0.0158430
 7,-0.06209983,0.05950813,0.00223659,0.00321232,0.00139207,-0.01438702,
 0.09736947,0.00356168,-0.00321634,-0.00122906,-0.00026169,0.00087522,-
 0.00027920,-0.00068328,0.00062139,-0.00040425,-0.00084546,0.00002744,0
 .00134344,-0.00027798,0.00035751,0.00122567,0.00638396,0.02210604,0.01
 066815,-0.00041676,0.00036897,0.00024236,0.00009402,-0.00012606,-0.000
 02825,0.00009871,0.00032390,-0.00119990,-0.00010382,-0.00003305,0.0002
 0533,-0.00015439,-0.00034523,0.00046492,0.00017437,0.00045090,-0.00035
 263,-0.00015881,0.00025892,0.00024702,0.00009258,0.00016600,-0.0002963
 1,0.00013417,-0.00024319,0.00034456,-0.00002007,0.00017739,-0.00019911
 ,-0.00020145,0.00002329,0.00013934,0.00006450,-0.00028283,0.00049542,-
 0.00013151,0.00019573,-0.00018325,0.00003663,0.00000203,0.00006843,-0.
 03417021,0.04833668,-0.18717605,-0.00341733,0.00225347,-0.00928464,0.0
 3462463,-0.07558507,0.21284690,0.00228578,-0.00042572,0.00237989,-0.00
 092440,-0.00017481,-0.00022130,-0.00037625,-0.00174697,-0.00121286,-0.
 00073078,0.00009913,-0.00005647,-0.00026554,0.00022693,0.00019536,-0.0
 0815723,0.00970653,-0.00064742,-0.00016502,-0.00025051,-0.00028139,0.0
 0005769,-0.00000703,0.00002742,0.00010668,0.00009257,-0.00034955,-0.00
 003302,-0.00001049,0.00004145,-0.00004944,-0.00008370,0.00008546,0.000
 09051,0.00007446,-0.00015805,-0.00001102,0.00000755,0.00000876,0.00001
 007,0.00006623,-0.00003366,0.00113801,-0.00047351,0.00005159,-0.000172
 69,0.00001859,-0.00006367,0.00019070,0.00023256,0.00025812,-0.00023885
 ,0.00161456,0.00050614,-0.00004294,-0.00054814,-0.00013308,-0.00023125
 ,-0.00040215,-0.00079362,-0.09030897,0.01751361,0.03378278,-0.01801910
 ,0.01025536,0.02250721,0.00233437,-0.00143718,-0.00853959,0.43328591,-
 0.00132861,0.00028210,-0.00184867,-0.00061151,0.00031729,0.00077800,-0
 .00028633,0.00019438,-0.00005875,0.00000679,0.00081815,0.00022664,0.00
 051020,-0.00091467,-0.00045488,0.00596879,-0.05179172,-0.02372253,-0.0
 0016300,0.00018840,0.00014260,0.00005567,-0.00005835,-0.00004147,-0.00
 007265,-0.00019145,-0.00034904,-0.00005082,0.00009791,0.00008440,0.000
 06613,-0.00005345,0.00001039,-0.00002518,-0.00036234,0.00033771,0.0000
 3068,0.00000758,0.00001155,-0.00010432,0.00008502,0.00014768,0.0009043
 2,-0.00091824,-0.00029817,-0.00014616,0.00017682,-0.00007370,-0.000223
 50,-0.00034042,0.00038705,0.00005924,0.00038357,0.00027900,-0.00017661
 ,-0.00007121,-0.00015136,-0.00004995,-0.00010940,-0.00022987,0.0071141
 8,-0.06392373,-0.01231878,-0.00072998,0.00403596,0.00289363,-0.0039656
 9,0.00382956,0.00707778,0.01271500,0.57976214,-0.00015921,-0.00049774,
 0.00236079,0.00020916,-0.00048625,-0.00135398,0.00025319,-0.00017700,-
 0.00208052,-0.00007523,0.00095235,-0.00024801,0.00000232,0.00003377,-0
 .00037117,0.00016134,-0.01804259,0.00534672,0.00017701,-0.00014687,-0.
 00041145,-0.00003828,0.00011624,0.00004291,0.00000429,-0.00000451,-0.0
 0040165,-0.00004176,0.00002042,0.00009711,-0.00000106,-0.00004937,0.00
 001147,-0.00002874,-0.00005802,0.00022121,0.00000203,0.00002742,-0.000
 03575,-0.00000607,0.00010570,-0.00008684,-0.00024154,0.00074042,0.0006
 1099,0.00013253,-0.00026447,0.00011004,0.00075951,0.00044192,0.0001513
 1,-0.00095024,0.00107173,0.00163375,0.00021599,-0.00050950,-0.00026086
 ,-0.00021770,-0.00043427,-0.00096030,0.02333635,-0.01472322,-0.1194258
 7,-0.00593569,0.00455956,0.00401298,0.01815387,-0.01229350,-0.02737995
 ,0.06058454,-0.02760735,0.50617521,0.00059811,-0.00059669,0.00019426,0
 .00007385,0.00011524,-0.00011858,-0.00013259,0.00015079,-0.00011178,-0
 .00016894,-0.00000927,0.00011311,-0.00013249,0.00025319,0.00018822,-0.
 00036367,0.00301791,0.00401165,-0.00007079,0.00008104,-0.00001366,0.00
 001171,-0.00001003,0.00000243,0.00004277,-0.00000620,-0.00010849,-0.00
 003038,0.00001595,0.00002235,-0.00000755,-0.00002850,0.00003348,0.0000
 5803,0.00004188,-0.00009900,-0.00002458,0.00005002,0.00003940,0.000004
 25,-0.00002256,-0.00007460,-0.00004190,0.00002957,0.00009509,0.0000041
 2,0.00003643,-0.00005216,-0.00011125,-0.00002959,-0.00001594,0.0000358
 3,-0.00022013,0.00014113,-0.00001136,0.00007471,-0.00002644,0.00004056
 ,0.00001072,0.00006559,0.00351034,0.01476694,-0.00875113,-0.00073924,-
 0.00092845,-0.00025559,0.00101260,-0.00073308,0.00002369,-0.05203268,0
 .03877870,-0.00830844,0.05817847,-0.00158985,0.00130124,-0.00016855,0.
 00023353,-0.00036215,0.00005669,0.00037852,-0.00011642,0.00032467,0.00
 050659,-0.00012997,-0.00037816,0.00026947,-0.00040352,-0.00042527,0.00
 225640,-0.00238028,-0.00432704,0.00029415,-0.00023123,0.00000228,-0.00
 006762,0.00006448,0.00000471,-0.00008918,0.00005245,0.00037412,0.00009
 431,-0.00007576,-0.00007271,0.00001134,0.00008971,-0.00009248,-0.00015
 415,-0.00000664,0.00026960,0.00004771,-0.00011882,-0.00011578,-0.00001
 207,0.00004854,0.00013928,-0.00025450,0.00038026,-0.00014914,0.0000374
 5,-0.00013357,0.00015351,0.00010795,0.00006668,-0.00016083,-0.00003944
 ,0.00009900,-0.00023469,0.00013063,-0.00011849,0.00010556,-0.00004394,
 0.00002323,-0.00002881,-0.00091646,-0.01083426,0.00976532,0.00103978,-
 0.00029003,-0.00097990,-0.00076647,0.00158522,-0.00175184,0.03217439,-
 0.26322207,0.04324666,-0.02494420,0.29838021,-0.00046084,0.00012815,-0
 .00102724,-0.00008591,0.00019969,0.00047533,-0.00004411,0.00028170,0.0
 0038787,0.00009110,-0.00000857,0.00013804,0.00013020,-0.00021415,-0.00
 000256,0.00260486,-0.00317524,-0.00216980,-0.00005973,0.00009638,0.000
 13093,0.00001492,-0.00003452,-0.00001804,-0.00002526,-0.00001991,-0.00
 001757,0.00000013,0.00001048,0.00000379,0.00000537,-0.00000219,0.00001
 184,-0.00002366,-0.00002407,0.00004750,0.00000618,-0.00000342,0.000005
 30,-0.00000673,0.00000960,0.00004660,0.00015920,-0.00037649,-0.0001526
 3,-0.00003536,0.00009078,-0.00003717,-0.00020749,-0.00007309,-0.000052
 84,0.00018962,-0.00031144,-0.00023124,-0.00008484,0.00016147,0.0000273
 5,0.00010046,0.00010010,0.00026121,-0.00079021,-0.02018848,0.00576523,
 0.00082247,0.00051817,-0.00005337,-0.00082960,0.00018170,0.00076847,-0
 .00825910,0.04556653,-0.05894655,0.00897709,-0.04761301,0.05747734,-0.
 00036419,0.00043060,-0.00044357,-0.00013521,0.00011589,0.00043551,0.00
 001337,-0.00021682,0.00037602,0.00016845,-0.00001346,-0.00002257,0.000
 09322,-0.00008302,-0.00001623,0.00141080,-0.00052490,-0.00186417,0.000
 00773,-0.00001127,0.00006674,0.00000419,-0.00001510,-0.00000830,-0.000
 02143,-0.00003820,0.00007825,0.00001534,0.00000521,-0.00001611,0.00001
 368,0.00002142,-0.00002860,-0.00003436,-0.00000648,0.00002460,0.000007
 66,-0.00001222,-0.00000316,-0.00000898,-0.00002718,0.00003826,0.000179
 02,-0.00023633,-0.00025798,-0.00006032,0.00002824,0.00000554,-0.000279
 81,-0.00002946,-0.00016614,-0.00004150,0.00036530,-0.00056531,-0.00003
 471,0.00003139,0.00008584,0.00010583,0.00006573,-0.00000268,0.00535407
 ,-0.00308163,0.01713727,0.00135665,-0.00017228,-0.00006228,-0.00097878
 ,0.00158329,0.00380289,-0.07545926,0.01514893,-0.07926372,0.00058198,0
 .00332113,-0.00505337,0.10179770,0.00010982,-0.00014427,-0.00061572,-0
 .00012828,0.00031653,0.00024219,-0.00008521,0.00015838,0.00021637,-0.0
 0000654,-0.00001018,0.00016169,0.00001873,-0.00002784,0.00017196,0.000
 78112,0.00157350,0.00119033,-0.00007949,0.00008326,0.00008962,0.000020
 11,-0.00003199,-0.00000990,-0.00001104,0.00000009,-0.00007706,-0.00000
 169,0.00000243,0.00001586,-0.00001116,-0.00001535,0.00003535,-0.000025
 16,0.00008360,-0.00005598,0.00000098,0.00000603,0.00002036,0.00002555,
 -0.00000891,0.00000944,0.00022624,-0.00047387,0.00005810,-0.00002189,0
 .00010183,-0.00007665,-0.00028309,-0.00031265,0.00010081,0.00040492,-0
 .00068209,0.00006818,-0.00008423,0.00012877,-0.00001067,0.00002634,0.0
 0022663,0.00018096,-0.00484168,0.00271432,-0.01178918,-0.00049813,0.00
 082122,0.00063968,0.00066028,0.00010140,-0.00276571,0.01837557,-0.0596
 1411,0.03415947,0.01179976,-0.00563522,0.02815872,-0.00881751,0.057681
 44,-0.00091088,0.00034235,-0.00222858,0.00007661,0.00023346,0.00090090
 ,0.00010210,0.00073043,0.00098329,0.00023343,-0.00023224,0.00043014,0.
 00015858,-0.00032163,0.00037920,0.00093815,-0.00208239,0.00295618,0.00
 000345,0.00012279,0.00034616,-0.00000214,-0.00005440,-0.00004306,-0.00
 008469,0.00009952,-0.00009734,0.00005092,-0.00005279,0.00000976,-0.000
 03551,-0.00003819,0.00009872,-0.00012752,0.00029227,-0.00008591,0.0000
 3404,-0.00005176,-0.00000300,0.00008135,-0.00002346,0.00011105,-0.0001
 2028,-0.00038179,-0.00039311,-0.00001946,0.00007924,0.00001234,-0.0003
 0229,-0.00005904,-0.00014013,0.00015866,-0.00036686,-0.00052419,-0.000
 08964,0.00025842,0.00009863,0.00011986,0.00014087,0.00046043,-0.007869
 23,0.00877236,-0.02250515,0.00074525,0.00031883,0.00097366,0.00320539,
 -0.00284008,-0.00362275,-0.07791228,0.03190051,-0.23817362,-0.00126921
 ,0.00162525,-0.00542597,0.09397544,-0.03286683,0.25828555,0.00081420,-
 0.00513647,0.00125776,0.00115477,0.00084441,-0.00102849,-0.00000683,0.
 00174963,-0.00130399,-0.00096661,0.00168425,0.00093330,0.00035261,0.00
 108364,0.00042211,-0.01180475,0.00220729,0.00857606,-0.00013770,0.0007
 4822,-0.00013039,-0.00000487,-0.00000056,-0.00004502,0.00010311,-0.000
 60410,-0.00121374,-0.00018802,0.00029778,0.00026453,0.00005828,-0.0001
 0766,0.00007127,0.00005123,-0.00018645,-0.00030207,-0.00005182,0.00031
 894,0.00023910,-0.00003423,-0.00018304,-0.00022727,-0.00077014,0.00057
 197,0.00062645,0.00013285,0.00024240,-0.00031005,-0.00024698,-0.000389
 85,-0.00001942,-0.00040416,-0.00124321,0.00080352,-0.00001560,0.000525
 42,-0.00023036,0.00012509,0.00009849,0.00038201,-0.04637129,-0.0043497
 0,0.00534234,-0.00114251,0.00282220,0.00572516,0.00158563,-0.00088410,
 0.00188149,-0.19741953,-0.03569135,0.00438216,-0.00397941,-0.00922763,
 0.00255730,-0.03047089,-0.01612017,-0.00977818,0.36387107,-0.00601660,
 0.00497217,-0.00297223,0.00085768,-0.00098358,0.00056930,0.00125391,0.
 00099626,0.00191736,0.00250665,-0.00029917,-0.00090322,0.00059411,-0.0
 0134072,-0.00111645,0.04155124,-0.00492836,-0.01635336,0.00067754,-0.0
 0035191,0.00025407,-0.00017098,0.00011820,-0.00001643,-0.00028663,0.00
 020553,0.00106376,0.00021750,-0.00017827,-0.00021787,0.00004719,0.0002
 0134,-0.00024082,-0.00040951,-0.00002165,0.00076977,0.00012657,-0.0003
 1332,-0.00028737,-0.00000036,0.00013457,0.00034487,-0.00128565,0.00116
 122,-0.00053003,0.00019366,-0.00029616,0.00042962,0.00047398,-0.000559
 05,-0.00011527,0.00029255,-0.00097826,-0.00103199,0.00025886,0.0001355
 4,0.00032943,0.00000215,0.00040742,0.00062111,-0.00161169,-0.01349732,
 -0.00259798,0.00255948,0.00250074,-0.00035210,0.00037426,0.00215438,-0
 .00076793,-0.07360727,-0.11024257,0.00214388,-0.04028012,-0.01678720,-
 0.00163188,-0.01013030,0.00245707,-0.00700198,-0.00398367,0.39755467,-
 0.00255070,0.00496373,-0.00478427,-0.00126854,0.00054353,0.00280626,0.
 00025007,-0.00030938,0.00291026,0.00146528,-0.00095379,-0.00018359,0.0
 0020119,-0.00120682,0.00029172,0.02179226,-0.00665008,0.00029355,-0.00
 004386,-0.00020564,0.00064645,0.00004921,-0.00013984,-0.00006119,-0.00
 015905,0.00023710,0.00067190,0.00018017,-0.00017871,-0.00016659,-0.000
 02610,0.00005205,-0.00002231,-0.00027915,0.00048480,0.00010555,0.00006
 897,-0.00020667,-0.00010694,0.00009253,-0.00003553,0.00027832,0.001597
 96,-0.00236752,-0.00109192,-0.00029929,0.00011144,0.00006203,-0.000713
 40,0.00046978,-0.00031244,0.00086634,0.00005422,-0.00187465,-0.0002990
 3,-0.00000378,0.00029548,-0.00004166,0.00043752,0.00048103,0.02604993,
 0.00278943,0.00313936,0.00369303,-0.00188862,-0.00264632,-0.00155112,0
 .00128728,0.00229245,-0.01084879,-0.01177987,-0.07519700,0.00210786,-0
 .00273038,0.00360242,-0.02823836,-0.01676039,0.00744824,-0.05419148,0.
 13945061,0.13455479,-0.00554888,0.00667597,-0.00353974,-0.00047291,-0.
 00082412,0.00183259,0.00097196,-0.00015061,0.00239020,0.00231461,-0.00
 072962,-0.00095608,0.00028934,-0.00178054,-0.00090889,0.01716636,-0.00
 464946,-0.00963804,0.00043647,-0.00052695,0.00035357,-0.00007550,0.000
 03931,-0.00000778,-0.00029018,0.00040226,0.00113861,0.00022757,-0.0002
 4199,-0.00023240,0.00001063,0.00015306,-0.00017062,-0.00037470,0.00013
 673,0.00063966,0.00016211,-0.00041250,-0.00032701,0.00001006,0.0002158
 1,0.00045487,0.00009460,-0.00069902,-0.00087765,0.00004770,-0.00034093
 ,0.00047131,0.00018729,0.00047705,-0.00076267,0.00037466,0.00014449,-0
 .00153568,0.00002242,-0.00012940,0.00034566,-0.00004736,0.00031156,0.0
 0032347,-0.01442866,-0.01905441,0.00500569,0.00169367,0.00172186,0.000
 67468,-0.00026694,0.00241561,-0.00159097,0.00513823,-0.03773298,-0.013
 10663,-0.00630580,-0.00279783,0.00030732,-0.00322024,-0.00143415,-0.00
 136192,-0.07423349,0.08579546,0.04209570,0.07611701,0.00457074,-0.0034
 7264,0.00205841,-0.00047116,0.00026818,-0.00139696,-0.00083816,-0.0004
 8681,-0.00152378,-0.00157624,0.00006149,0.00056896,-0.00062535,0.00085
 396,0.00076315,-0.01519604,-0.00754848,0.00526455,-0.00050350,0.000285
 54,-0.00021500,0.00011858,-0.00008476,0.00001980,0.00022791,-0.0001419
 3,-0.00067284,-0.00016352,0.00013033,0.00012661,-0.00004369,-0.0001380
 8,0.00015370,0.00032658,-0.00000434,-0.00065538,-0.00010985,0.00024965
 ,0.00024042,0.00006102,-0.00011115,-0.00031099,0.00021715,0.00007800,0
 .00099018,-0.00007308,0.00022195,-0.00036781,0.00009603,0.00020051,0.0
 0102341,-0.00028251,0.00049900,0.00094824,-0.00011246,-0.00004732,-0.0
 0023534,-0.00000783,-0.00036974,-0.00038256,0.00154972,0.01027292,0.00
 016035,-0.00176370,-0.00400715,-0.00127764,-0.00020879,-0.00257384,0.0
 0149459,-0.02400555,-0.03836516,-0.01232488,-0.00141401,-0.00124538,-0
 .00182702,0.00229902,0.00049997,0.00145713,0.06491332,-0.26222157,-0.1
 0546445,-0.02698463,0.30719686,0.00357292,-0.00556206,0.00472854,0.001
 29376,-0.00030097,-0.00288929,-0.00050855,0.00017003,-0.00269377,-0.00
 166545,0.00046753,0.00035777,-0.00041143,0.00136059,-0.00005751,-0.015
 11525,0.00491880,-0.00799444,-0.00002479,0.00021763,-0.00059862,-0.000
 03880,0.00011498,0.00006308,0.00016133,-0.00012917,-0.00060640,-0.0001
 8460,0.00014921,0.00014355,-0.00000420,-0.00006895,0.00007089,0.000364
 46,-0.00047728,-0.00030261,-0.00008733,0.00022166,0.00015316,-0.000011
 31,0.00002297,-0.00034619,-0.00193366,0.00269565,0.00124179,0.00041855
 ,-0.00022782,0.00001057,0.00027543,-0.00010062,-0.00088997,-0.00069311
 ,-0.00054443,0.00149173,0.00033683,0.00013965,-0.00022099,0.00002454,-
 0.00024919,-0.00027763,0.00934967,0.00873449,0.00117619,-0.00202335,-0
 .00211989,-0.00075092,0.00034777,-0.00082197,0.00028289,-0.01091791,-0
 .01090904,0.00455903,0.00318968,0.00316094,-0.00101424,-0.00001382,-0.
 00049099,-0.00025145,0.03531591,-0.11175688,-0.07343260,-0.02101727,0.
 11138514,0.07804741\\-0.00157358,0.00148277,-0.00047256,0.00000155,0.0
 0000244,-0.00000372,0.00000328,0.00002036,-0.00000079,0.00001160,0.000
 01038,0.00000984,-0.00000962,-0.00000067,0.00000043,0.00156848,-0.0014
 9079,0.00047156,0.00000902,0.00000339,0.00001068,0.00000093,-0.0000006
 1,-0.00000557,0.00000821,-0.00000684,-0.00001339,-0.00000693,0.0000060
 4,0.00000048,-0.00000455,-0.00000478,0.00000265,-0.00001275,0.00000232
 ,0.00000729,0.00000378,-0.00000377,-0.00000271,0.00000245,-0.00000834,
 -0.00000100,-0.00000085,-0.00000745,0.00001029,0.00000728,0.00000362,0
 .00000226,-0.00000464,0.00000456,-0.00000716,0.00001626,-0.00000483,0.
 00000285,-0.00000399,0.00000244,-0.00000416,-0.00000033,0.00000121,0.0
 0000078,-0.00000108,-0.00002737,-0.00002778,0.00000352,0.00000221,0.00
 000325,-0.00000129,0.00000369,-0.00000301,-0.00000014,0.00002192,0.000
 02771,-0.00000388,-0.00000736,-0.00000737,-0.00000729,-0.00000057,-0.0
 0000451,0.00000139,-0.00003243,-0.00001260,-0.00000682,0.00002843,0.00
 001627\\\@
 The archive entry for this job was punched.


 LAWS OF PROGRAMMING DEFINITION:  A WORKING PROGRAM
                                  IS ONE THAT HAS
                                  ONLY UNOBSERVED
                                  BUGS.
 Job cpu time:       0 days 12 hours 35 minutes 39.9 seconds.
 Elapsed time:       0 days  3 hours  9 minutes 27.6 seconds.
 File lengths (MBytes):  RWF=    855 Int=      0 D2E=      0 Chk=     34 Scr=      1
 Normal termination of Gaussian 16 at Fri Feb 16 05:38:27 2024.
