 Entering Gaussian System, Link 0=/opt/software/gaussian/g16.c01/g16
 Initial command:
 /opt/software/gaussian/g16.c01/l1.exe "/scratch/arhender/17999689/Gau-15533.inp" -scrdir="/scratch/arhender/17999689/"
 Entering Link 1 = /opt/software/gaussian/g16.c01/l1.exe PID=     15549.
  
 Copyright (c) 1988-2019, Gaussian, Inc.  All Rights Reserved.
  
 This is part of the Gaussian(R) 16 program.  It is based on
 the Gaussian(R) 09 system (copyright 2009, Gaussian, Inc.),
 the Gaussian(R) 03 system (copyright 2003, Gaussian, Inc.),
 the Gaussian(R) 98 system (copyright 1998, Gaussian, Inc.),
 the Gaussian(R) 94 system (copyright 1995, Gaussian, Inc.),
 the Gaussian 92(TM) system (copyright 1992, Gaussian, Inc.),
 the Gaussian 90(TM) system (copyright 1990, Gaussian, Inc.),
 the Gaussian 88(TM) system (copyright 1988, Gaussian, Inc.),
 the Gaussian 86(TM) system (copyright 1986, Carnegie Mellon
 University), and the Gaussian 82(TM) system (copyright 1983,
 Carnegie Mellon University). Gaussian is a federally registered
 trademark of Gaussian, Inc.
  
 This software contains proprietary and confidential information,
 including trade secrets, belonging to Gaussian, Inc.
  
 This software is provided under written license and may be
 used, copied, transmitted, or stored only in accord with that
 written license.
  
 The following legend is applicable only to US Government
 contracts under FAR:
  
                    RESTRICTED RIGHTS LEGEND
  
 Use, reproduction and disclosure by the US Government is
 subject to restrictions as set forth in subparagraphs (a)
 and (c) of the Commercial Computer Software - Restricted
 Rights clause in FAR 52.227-19.
  
 Gaussian, Inc.
 340 Quinnipiac St., Bldg. 40, Wallingford CT 06492
  
  
 ---------------------------------------------------------------
 Warning -- This program may not be used in any manner that
 competes with the business of Gaussian, Inc. or will provide
 assistance to any competitor of Gaussian, Inc.  The licensee
 of this program is prohibited from giving any competitor of
 Gaussian, Inc. access to this program.  By using this program,
 the user acknowledges that Gaussian, Inc. is engaged in the
 business of creating and licensing software in the field of
 computational chemistry and represents and warrants to the
 licensee that it is not a competitor of Gaussian, Inc. and that
 it will not use this program in any manner prohibited above.
 ---------------------------------------------------------------
  

 Cite this work as:
 Gaussian 16, Revision C.01,
 M. J. Frisch, G. W. Trucks, H. B. Schlegel, G. E. Scuseria, 
 M. A. Robb, J. R. Cheeseman, G. Scalmani, V. Barone, 
 G. A. Petersson, H. Nakatsuji, X. Li, M. Caricato, A. V. Marenich, 
 J. Bloino, B. G. Janesko, R. Gomperts, B. Mennucci, H. P. Hratchian, 
 J. V. Ortiz, A. F. Izmaylov, J. L. Sonnenberg, D. Williams-Young, 
 F. Ding, F. Lipparini, F. Egidi, J. Goings, B. Peng, A. Petrone, 
 T. Henderson, D. Ranasinghe, V. G. Zakrzewski, J. Gao, N. Rega, 
 G. Zheng, W. Liang, M. Hada, M. Ehara, K. Toyota, R. Fukuda, 
 J. Hasegawa, M. Ishida, T. Nakajima, Y. Honda, O. Kitao, H. Nakai, 
 T. Vreven, K. Throssell, J. A. Montgomery, Jr., J. E. Peralta, 
 F. Ogliaro, M. J. Bearpark, J. J. Heyd, E. N. Brothers, K. N. Kudin, 
 V. N. Staroverov, T. A. Keith, R. Kobayashi, J. Normand, 
 K. Raghavachari, A. P. Rendell, J. C. Burant, S. S. Iyengar, 
 J. Tomasi, M. Cossi, J. M. Millam, M. Klene, C. Adamo, R. Cammi, 
 J. W. Ochterski, R. L. Martin, K. Morokuma, O. Farkas, 
 J. B. Foresman, and D. J. Fox, Gaussian, Inc., Wallingford CT, 2019.
 
 ******************************************
 Gaussian 16:  ES64L-G16RevC.01  3-Jul-2019
                21-Mar-2024 
 ******************************************
 %chk=Convert_HbiLmLtoPbiLmLTS_to_HbiLtoPbiLTS_calcfc.chk
 %mem=1600MB
 %nprocs=4
 Will use up to    4 processors via shared memory.
 -----------------------------------------------------------------
 # opt=(calcfc,ts,noeigen) freq wb97xd/def2tzvpp geom=connectivity
 -----------------------------------------------------------------
 1/5=1,10=4,11=1,18=20,26=3,38=1,57=2/1,3;
 2/9=110,12=2,17=6,18=5,40=1/2;
 3/5=44,7=202,11=2,25=1,30=1,71=2,74=-58,140=1/1,2,3;
 4//1;
 5/5=2,38=5/2;
 8/6=4,10=90,11=11/1;
 11/6=1,8=1,9=11,15=111,16=1/1,2,10;
 10/6=1,13=1/2;
 6/7=2,8=2,9=2,10=2,28=1/1;
 7/10=1,25=1/1,2,3,16;
 1/5=1,10=4,11=1,18=20,26=3/3(2);
 2/9=110/2;
 99//99;
 2/9=110/2;
 3/5=44,7=202,11=2,25=1,30=1,71=1,74=-58/1,2,3;
 4/5=5,16=3,69=1/1;
 5/5=2,38=5/2;
 7//1,2,3,16;
 1/5=1,11=1,18=20,26=3/3(-5);
 2/9=110/2;
 6/7=2,8=2,9=2,10=2,19=2,28=1/1;
 99/9=1/99;
 ----------------------------------------------------------------------
 Take TS opt from hydroxyl loss of HbiL2moL collapse deprotonated and r
 eprotonate free ligand hydroxyl
 ----------------------------------------------------------------------
 Symbolic Z-matrix:
 Charge = -2 Multiplicity = 1
 Si                    0.3569   -0.02102   0.08097 
 O                     0.19669   1.13357  -1.20081 
 O                     1.08197  -0.99247   1.31789 
 O                     0.74829  -1.25802  -1.07825 
 O                    -1.32249  -0.43345   0.29744 
 O                     0.42812   1.29312   1.21904 
 C                     0.27476   2.54154   0.64455 
 H                    -0.77605   2.88945   0.72517 
 H                     0.91017   3.28277   1.15473 
 C                     0.66654   2.38925  -0.82487 
 H                     0.20884   3.17451  -1.44891 
 H                     1.76315   2.40315  -0.908 
 C                     1.80264  -2.0509   -0.63383 
 H                     1.79099  -3.02953  -1.14273 
 H                     2.75414  -1.52558  -0.80221 
 C                     1.58524  -2.20118   0.87231 
 H                     0.86991  -3.02426   1.0771 
 H                     2.5275   -2.44038   1.3897 
 O                     3.29521   0.71128  -0.31012 
 H                     3.11899   0.69328   0.63214 
 H                    -1.88922  -0.63045  -0.45197 
 
 Add virtual bond connecting atoms O19        and H12        Dist= 4.46D+00.
 Add virtual bond connecting atoms O19        and H15        Dist= 4.45D+00.

 GradGradGradGradGradGradGradGradGradGradGradGradGradGradGradGradGradGrad
 Berny optimization.
 Initialization pass.
                           ----------------------------
                           !    Initial Parameters    !
                           ! (Angstroms and Degrees)  !
 --------------------------                            --------------------------
 ! Name  Definition              Value          Derivative Info.                !
 --------------------------------------------------------------------------------
 ! R1    R(1,2)                  1.7325         calculate D2E/DX2 analytically  !
 ! R2    R(1,3)                  1.7319         calculate D2E/DX2 analytically  !
 ! R3    R(1,4)                  1.7399         calculate D2E/DX2 analytically  !
 ! R4    R(1,5)                  1.7428         calculate D2E/DX2 analytically  !
 ! R5    R(1,6)                  1.7399         calculate D2E/DX2 analytically  !
 ! R6    R(2,10)                 1.3924         calculate D2E/DX2 analytically  !
 ! R7    R(3,16)                 1.383          calculate D2E/DX2 analytically  !
 ! R8    R(4,13)                 1.3921         calculate D2E/DX2 analytically  !
 ! R9    R(5,21)                 0.96           calculate D2E/DX2 analytically  !
 ! R10   R(6,7)                  1.3828         calculate D2E/DX2 analytically  !
 ! R11   R(7,8)                  1.1098         calculate D2E/DX2 analytically  !
 ! R12   R(7,9)                  1.1016         calculate D2E/DX2 analytically  !
 ! R13   R(7,10)                 1.5284         calculate D2E/DX2 analytically  !
 ! R14   R(10,11)                1.1025         calculate D2E/DX2 analytically  !
 ! R15   R(10,12)                1.0998         calculate D2E/DX2 analytically  !
 ! R16   R(12,19)                2.3595         calculate D2E/DX2 analytically  !
 ! R17   R(13,14)                1.1031         calculate D2E/DX2 analytically  !
 ! R18   R(13,15)                1.0998         calculate D2E/DX2 analytically  !
 ! R19   R(13,16)                1.5292         calculate D2E/DX2 analytically  !
 ! R20   R(15,19)                2.3534         calculate D2E/DX2 analytically  !
 ! R21   R(16,17)                1.1095         calculate D2E/DX2 analytically  !
 ! R22   R(16,18)                1.1013         calculate D2E/DX2 analytically  !
 ! R23   R(19,20)                0.9588         calculate D2E/DX2 analytically  !
 ! A1    A(2,1,3)              160.2048         calculate D2E/DX2 analytically  !
 ! A2    A(2,1,4)               90.0963         calculate D2E/DX2 analytically  !
 ! A3    A(2,1,5)               99.2354         calculate D2E/DX2 analytically  !
 ! A4    A(2,1,6)               89.1043         calculate D2E/DX2 analytically  !
 ! A5    A(3,1,4)               89.019          calculate D2E/DX2 analytically  !
 ! A6    A(3,1,5)              100.4848         calculate D2E/DX2 analytically  !
 ! A7    A(3,1,6)               86.5233         calculate D2E/DX2 analytically  !
 ! A8    A(4,1,5)               97.5434         calculate D2E/DX2 analytically  !
 ! A9    A(4,1,6)              164.4925         calculate D2E/DX2 analytically  !
 ! A10   A(5,1,6)               97.8708         calculate D2E/DX2 analytically  !
 ! A11   A(1,2,10)             111.7168         calculate D2E/DX2 analytically  !
 ! A12   A(1,3,16)             114.3597         calculate D2E/DX2 analytically  !
 ! A13   A(1,4,13)             111.2612         calculate D2E/DX2 analytically  !
 ! A14   A(1,5,21)             121.3638         calculate D2E/DX2 analytically  !
 ! A15   A(1,6,7)              113.9296         calculate D2E/DX2 analytically  !
 ! A16   A(6,7,8)              110.9682         calculate D2E/DX2 analytically  !
 ! A17   A(6,7,9)              110.5558         calculate D2E/DX2 analytically  !
 ! A18   A(6,7,10)             106.3224         calculate D2E/DX2 analytically  !
 ! A19   A(8,7,9)              107.5514         calculate D2E/DX2 analytically  !
 ! A20   A(8,7,10)             110.107          calculate D2E/DX2 analytically  !
 ! A21   A(9,7,10)             111.3748         calculate D2E/DX2 analytically  !
 ! A22   A(2,10,7)             105.2449         calculate D2E/DX2 analytically  !
 ! A23   A(2,10,11)            110.4506         calculate D2E/DX2 analytically  !
 ! A24   A(2,10,12)            109.1129         calculate D2E/DX2 analytically  !
 ! A25   A(7,10,11)            111.5183         calculate D2E/DX2 analytically  !
 ! A26   A(7,10,12)            109.0864         calculate D2E/DX2 analytically  !
 ! A27   A(11,10,12)           111.2314         calculate D2E/DX2 analytically  !
 ! A28   A(10,12,19)           128.2578         calculate D2E/DX2 analytically  !
 ! A29   A(4,13,14)            110.4884         calculate D2E/DX2 analytically  !
 ! A30   A(4,13,15)            109.531          calculate D2E/DX2 analytically  !
 ! A31   A(4,13,16)            105.2333         calculate D2E/DX2 analytically  !
 ! A32   A(14,13,15)           111.2384         calculate D2E/DX2 analytically  !
 ! A33   A(14,13,16)           111.451          calculate D2E/DX2 analytically  !
 ! A34   A(15,13,16)           108.7069         calculate D2E/DX2 analytically  !
 ! A35   A(13,15,19)           128.3797         calculate D2E/DX2 analytically  !
 ! A36   A(3,16,13)            106.4494         calculate D2E/DX2 analytically  !
 ! A37   A(3,16,17)            110.7469         calculate D2E/DX2 analytically  !
 ! A38   A(3,16,18)            110.4766         calculate D2E/DX2 analytically  !
 ! A39   A(13,16,17)           110.264          calculate D2E/DX2 analytically  !
 ! A40   A(13,16,18)           111.2505         calculate D2E/DX2 analytically  !
 ! A41   A(17,16,18)           107.6855         calculate D2E/DX2 analytically  !
 ! A42   A(12,19,15)           118.6381         calculate D2E/DX2 analytically  !
 ! A43   A(12,19,20)            98.2311         calculate D2E/DX2 analytically  !
 ! A44   A(15,19,20)            98.36           calculate D2E/DX2 analytically  !
 ! D1    D(3,1,2,10)           -55.8935         calculate D2E/DX2 analytically  !
 ! D2    D(4,1,2,10)          -143.2634         calculate D2E/DX2 analytically  !
 ! D3    D(5,1,2,10)           119.0777         calculate D2E/DX2 analytically  !
 ! D4    D(6,1,2,10)            21.249          calculate D2E/DX2 analytically  !
 ! D5    D(2,1,3,16)           -88.0719         calculate D2E/DX2 analytically  !
 ! D6    D(4,1,3,16)            -0.5142         calculate D2E/DX2 analytically  !
 ! D7    D(5,1,3,16)            96.976          calculate D2E/DX2 analytically  !
 ! D8    D(6,1,3,16)          -165.6539         calculate D2E/DX2 analytically  !
 ! D9    D(2,1,4,13)           137.3275         calculate D2E/DX2 analytically  !
 ! D10   D(3,1,4,13)           -22.896          calculate D2E/DX2 analytically  !
 ! D11   D(5,1,4,13)          -123.3428         calculate D2E/DX2 analytically  !
 ! D12   D(6,1,4,13)            50.3318         calculate D2E/DX2 analytically  !
 ! D13   D(2,1,5,21)            46.6175         calculate D2E/DX2 analytically  !
 ! D14   D(3,1,5,21)          -135.1125         calculate D2E/DX2 analytically  !
 ! D15   D(4,1,5,21)           -44.7147         calculate D2E/DX2 analytically  !
 ! D16   D(6,1,5,21)           136.9894         calculate D2E/DX2 analytically  !
 ! D17   D(2,1,6,7)              2.6779         calculate D2E/DX2 analytically  !
 ! D18   D(3,1,6,7)            163.362          calculate D2E/DX2 analytically  !
 ! D19   D(4,1,6,7)             89.8085         calculate D2E/DX2 analytically  !
 ! D20   D(5,1,6,7)            -96.5218         calculate D2E/DX2 analytically  !
 ! D21   D(1,2,10,7)           -36.7187         calculate D2E/DX2 analytically  !
 ! D22   D(1,2,10,11)         -157.2081         calculate D2E/DX2 analytically  !
 ! D23   D(1,2,10,12)           80.2263         calculate D2E/DX2 analytically  !
 ! D24   D(1,3,16,13)           20.9624         calculate D2E/DX2 analytically  !
 ! D25   D(1,3,16,17)          -98.9062         calculate D2E/DX2 analytically  !
 ! D26   D(1,3,16,18)          141.8701         calculate D2E/DX2 analytically  !
 ! D27   D(1,4,13,14)          157.8958         calculate D2E/DX2 analytically  !
 ! D28   D(1,4,13,15)          -79.2253         calculate D2E/DX2 analytically  !
 ! D29   D(1,4,13,16)           37.4735         calculate D2E/DX2 analytically  !
 ! D30   D(1,6,7,8)             96.7539         calculate D2E/DX2 analytically  !
 ! D31   D(1,6,7,9)           -143.9965         calculate D2E/DX2 analytically  !
 ! D32   D(1,6,7,10)           -22.9714         calculate D2E/DX2 analytically  !
 ! D33   D(6,7,10,2)            37.1029         calculate D2E/DX2 analytically  !
 ! D34   D(6,7,10,11)          156.8868         calculate D2E/DX2 analytically  !
 ! D35   D(6,7,10,12)          -79.8601         calculate D2E/DX2 analytically  !
 ! D36   D(8,7,10,2)           -83.1811         calculate D2E/DX2 analytically  !
 ! D37   D(8,7,10,11)           36.6028         calculate D2E/DX2 analytically  !
 ! D38   D(8,7,10,12)          159.8559         calculate D2E/DX2 analytically  !
 ! D39   D(9,7,10,2)           157.6007         calculate D2E/DX2 analytically  !
 ! D40   D(9,7,10,11)          -82.6153         calculate D2E/DX2 analytically  !
 ! D41   D(9,7,10,12)           40.6377         calculate D2E/DX2 analytically  !
 ! D42   D(2,10,12,19)         -40.7749         calculate D2E/DX2 analytically  !
 ! D43   D(7,10,12,19)          73.7053         calculate D2E/DX2 analytically  !
 ! D44   D(11,10,12,19)       -162.8709         calculate D2E/DX2 analytically  !
 ! D45   D(10,12,19,15)         40.7351         calculate D2E/DX2 analytically  !
 ! D46   D(10,12,19,20)        -63.5281         calculate D2E/DX2 analytically  !
 ! D47   D(4,13,15,19)          46.5551         calculate D2E/DX2 analytically  !
 ! D48   D(14,13,15,19)        168.988          calculate D2E/DX2 analytically  !
 ! D49   D(16,13,15,19)        -67.93           calculate D2E/DX2 analytically  !
 ! D50   D(4,13,16,3)          -36.3883         calculate D2E/DX2 analytically  !
 ! D51   D(4,13,16,17)          83.7928         calculate D2E/DX2 analytically  !
 ! D52   D(4,13,16,18)        -156.7984         calculate D2E/DX2 analytically  !
 ! D53   D(14,13,16,3)        -156.1743         calculate D2E/DX2 analytically  !
 ! D54   D(14,13,16,17)        -35.9932         calculate D2E/DX2 analytically  !
 ! D55   D(14,13,16,18)         83.4156         calculate D2E/DX2 analytically  !
 ! D56   D(15,13,16,3)          80.8716         calculate D2E/DX2 analytically  !
 ! D57   D(15,13,16,17)       -158.9474         calculate D2E/DX2 analytically  !
 ! D58   D(15,13,16,18)        -39.5386         calculate D2E/DX2 analytically  !
 ! D59   D(13,15,19,12)        -45.9894         calculate D2E/DX2 analytically  !
 ! D60   D(13,15,19,20)         58.1996         calculate D2E/DX2 analytically  !
 --------------------------------------------------------------------------------
 Trust Radius=3.00D-01 FncErr=1.00D-07 GrdErr=1.00D-06 EigMax=2.50D+02 EigMin=1.00D-04
 Number of steps in this run=    126 maximum allowed number of steps=    126.
 Search for a saddle point of order  1.
 GradGradGradGradGradGradGradGradGradGradGradGradGradGradGradGradGradGrad

                          Input orientation:                          
 ---------------------------------------------------------------------
 Center     Atomic      Atomic             Coordinates (Angstroms)
 Number     Number       Type             X           Y           Z
 ---------------------------------------------------------------------
      1         14           0        0.356900   -0.021020    0.080966
      2          8           0        0.196687    1.133572   -1.200814
      3          8           0        1.081966   -0.992469    1.317893
      4          8           0        0.748290   -1.258016   -1.078254
      5          8           0       -1.322485   -0.433448    0.297437
      6          8           0        0.428121    1.293115    1.219037
      7          6           0        0.274761    2.541538    0.644553
      8          1           0       -0.776050    2.889453    0.725169
      9          1           0        0.910171    3.282775    1.154734
     10          6           0        0.666535    2.389248   -0.824869
     11          1           0        0.208836    3.174514   -1.448908
     12          1           0        1.763147    2.403146   -0.908001
     13          6           0        1.802643   -2.050899   -0.633828
     14          1           0        1.790989   -3.029527   -1.142730
     15          1           0        2.754137   -1.525575   -0.802212
     16          6           0        1.585244   -2.201180    0.872314
     17          1           0        0.869907   -3.024255    1.077095
     18          1           0        2.527504   -2.440384    1.389698
     19          8           0        3.295205    0.711284   -0.310118
     20          1           0        3.118994    0.693275    0.632143
     21          1           0       -1.889216   -0.630448   -0.451967
 ---------------------------------------------------------------------
                    Distance matrix (angstroms):
                    1          2          3          4          5
     1  Si   0.000000
     2  O    1.732545   0.000000
     3  O    1.731884   3.412866   0.000000
     4  O    1.739867   2.457434   2.433799   0.000000
     5  O    1.742782   2.647299   2.671183   2.619265   0.000000
     6  O    1.739893   2.436123   2.379323   3.447945   2.625831
     7  C    2.625087   2.322465   3.687028   4.198679   3.394440
     8  H    3.188954   2.781860   4.344291   4.772572   3.394586
     9  H    3.517691   3.267528   4.281804   5.062729   4.419279
    10  C    2.593415   1.392413   4.024925   3.656969   3.630893
    11  H    3.545966   2.056002   5.077528   4.480593   4.290927
    12  H    2.971896   2.037487   4.116894   3.803029   4.361247
    13  C    2.592588   3.611291   2.334280   1.392063   3.640031
    14  H    3.550374   4.458314   3.272153   2.056606   4.302026
    15  H    2.964867   3.710862   2.752309   2.042354   4.361286
    16  C    2.624530   4.164916   1.383044   2.322664   3.451123
    17  H    3.205444   4.788488   2.056965   2.789251   3.482346
    18  H    3.503944   4.991655   2.047241   3.264105   4.476968
    19  O    3.053335   3.251535   3.232897   3.309826   4.796102
    20  H    2.905714   3.477567   2.731569   3.514716   4.594374
    21  H    2.387563   2.832584   3.477267   2.782538   0.960000
                    6          7          8          9         10
     6  O    0.000000
     7  C    1.382791   0.000000
     8  H    2.059667   1.109841   0.000000
     9  H    2.048232   1.101573   1.783976   0.000000
    10  C    2.331502   1.528359   2.175747   2.185538   0.000000
    11  H    3.271953   2.188055   2.403720   2.698619   1.102522
    12  H    2.745679   2.155196   3.057983   2.399206   1.099846
    13  C    4.062616   5.005912   5.736167   5.695923   4.587172
    14  H    5.110830   6.044013   6.716626   6.774905   5.543334
    15  H    4.176220   4.978136   5.855560   5.509090   4.436714
    16  C    3.697195   4.925710   5.613547   5.532562   4.979607
    17  H    4.342235   5.614209   6.148575   6.307636   5.741502
    18  H    4.286671   5.518119   6.305730   5.951934   5.629641
    19  O    3.301062   3.658457   4.731951   3.800887   3.160765
    20  H    2.818697   3.392034   4.472496   3.443474   3.318699
    21  H    3.444184   3.993325   3.874854   5.072610   3.973598
                   11         12         13         14         15
    11  H    0.000000
    12  H    1.817546   0.000000
    13  C    5.523542   4.462650   0.000000
    14  H    6.409920   5.437813   1.103100   0.000000
    15  H    5.384014   4.053159   1.099845   1.818097   0.000000
    16  C    6.015036   4.939736   1.529154   2.188354   2.150998
    17  H    6.726250   5.847663   2.178228   2.403340   3.054204
    18  H    6.705295   5.415113   2.184440   2.702357   2.385940
    19  O    4.109747   2.359462   3.156293   4.116986   2.353391
    20  H    4.353888   2.670959   3.296355   4.332785   2.667169
    21  H    4.457965   4.769740   3.959871   4.447094   4.741799
                   16         17         18         19         20
    16  C    0.000000
    17  H    1.109547   0.000000
    18  H    1.101253   1.785008   0.000000
    19  O    3.578346   4.664835   3.662206   0.000000
    20  H    3.284500   4.367654   3.277738   0.958765   0.000000
    21  H    4.036433   3.959938   5.116153   5.357106   5.292420
                   21
    21  H    0.000000
 Stoichiometry    C4H10O6Si(2-)
 Framework group  C1[X(C4H10O6Si)]
 Deg. of freedom    57
 Full point group                 C1      NOp   1
 Largest Abelian subgroup         C1      NOp   1
 Largest concise Abelian subgroup C1      NOp   1
                         Standard orientation:                         
 ---------------------------------------------------------------------
 Center     Atomic      Atomic             Coordinates (Angstroms)
 Number     Number       Type             X           Y           Z
 ---------------------------------------------------------------------
      1         14           0       -0.005200   -0.467864   -0.032240
      2          8           0       -1.211423   -0.121430   -1.226693
      3          8           0        1.172080   -0.221759    1.213901
      4          8           0        1.243821   -0.224831   -1.218838
      5          8           0       -0.043094   -2.209164   -0.093308
      6          8           0       -1.207100   -0.246679    1.206204
      7          6           0       -2.473611    0.017207    0.717916
      8          1           0       -3.083430   -0.909060    0.674352
      9          1           0       -2.999456    0.730664    1.372078
     10          6           0       -2.282120    0.586769   -0.687363
     11          1           0       -3.184777    0.450236   -1.305525
     12          1           0       -2.008933    1.649379   -0.610601
     13          6           0        2.304363    0.507457   -0.692679
     14          1           0        3.223906    0.328105   -1.275003
     15          1           0        2.042967    1.575710   -0.679738
     16          6           0        2.451995    0.021164    0.749554
     17          1           0        3.064191   -0.903620    0.782517
     18          1           0        2.952304    0.776085    1.376087
     19          8           0        0.050289    2.583471    0.063297
     20          1           0        0.058779    2.260282    0.965909
     21          1           0       -0.033092   -2.680123   -0.929787
 ---------------------------------------------------------------------
 Rotational constants (GHZ):           1.4365076           0.9003421           0.7739880
 Standard basis: def2TZVPP (5D, 7F)
 There are   558 symmetry adapted cartesian basis functions of A   symmetry.
 There are   492 symmetry adapted basis functions of A   symmetry.
   492 basis functions,   749 primitive gaussians,   558 cartesian basis functions
    49 alpha electrons       49 beta electrons
       nuclear repulsion energy       866.0802343228 Hartrees.
 NAtoms=   21 NActive=   21 NUniq=   21 SFac= 1.00D+00 NAtFMM=   60 NAOKFM=F Big=F
 Integral buffers will be    131072 words long.
 Raffenetti 2 integral format.
 Two-electron integral symmetry is turned on.
 Nuclear repulsion after empirical dispersion term =      866.0676275599 Hartrees.
 One-electron integrals computed using PRISM.
   1 Symmetry operations used in ECPInt.
 ECPInt:  NShTT=   17020 NPrTT=   47563 LenC2=   16251 LenP2D=   35130.
 LDataN:  DoStor=T MaxTD1= 6 Len=  172
 NBasis=   492 RedAO= T EigKep=  2.58D-04  NBF=   492
 NBsUse=   492 1.00D-06 EigRej= -1.00D+00 NBFU=   492
 ExpMin= 7.01D-02 ExpMax= 4.48D+04 ExpMxC= 1.53D+03 IAcc=3 IRadAn=         5 AccDes= 0.00D+00
 Harris functional with IExCor= 4639 and IRadAn=       5 diagonalized for initial guess.
 HarFok:  IExCor= 4639 AccDes= 0.00D+00 IRadAn=         5 IDoV= 1 UseB2=F ITyADJ=14
 ICtDFT=  3500011 ScaDFX=  1.000000  1.000000  1.000000  1.000000
 FoFCou: FMM=F IPFlag=           0 FMFlag=      100000 FMFlg1=           0
         NFxFlg=           0 DoJE=T BraDBF=F KetDBF=T FulRan=T
         wScrn=  0.000000 ICntrl=       500 IOpCl=  0 I1Cent=   200000004 NGrid=           0
         NMat0=    1 NMatS0=      1 NMatT0=    0 NMatD0=    1 NMtDS0=    0 NMtDT0=    0
 Petite list used in FoFCou.
 Requested convergence on RMS density matrix=1.00D-08 within 128 cycles.
 Requested convergence on MAX density matrix=1.00D-06.
 Requested convergence on             energy=1.00D-06.
 No special actions if energy rises.
 Integral accuracy reduced to 1.0D-05 until final iterations.
 Initial convergence to 1.0D-05 achieved.  Increase integral accuracy.
 SCF Done:  E(RwB97XD) =  -899.431532114     A.U. after   16 cycles
            NFock= 16  Conv=0.43D-08     -V/T= 2.0035
 DoSCS=F DFT=T ScalE2(SS,OS)=  1.000000  1.000000
 Range of M.O.s used for correlation:     1   492
 NBasis=   492 NAE=    49 NBE=    49 NFC=     0 NFV=     0
 NROrb=    492 NOA=    49 NOB=    49 NVA=   443 NVB=   443

 **** Warning!!: The largest alpha MO coefficient is  0.11758846D+02

   1 Symmetry operations used in ECPInt.
 ECPInt:  NShTT=   17020 NPrTT=   47563 LenC2=   16251 LenP2D=   35130.
 LDataN:  DoStor=T MaxTD1= 7 Len=  274
 Symmetrizing basis deriv contribution to polar:
 IMax=3 JMax=2 DiffMx= 0.00D+00
 G2DrvN: will do    22 centers at a time, making    1 passes.
 Calling FoFCou, ICntrl=  3107 FMM=F I1Cent=   0 AccDes= 0.00D+00.
 End of G2Drv F.D. properties file   721 does not exist.
 End of G2Drv F.D. properties file   722 does not exist.
 End of G2Drv F.D. properties file   788 does not exist.
          IDoAtm=111111111111111111111
          Differentiating once with respect to nuclear coordinates.
 CalDSu exits because no D1Ps are significant.
          There are    66 degrees of freedom in the 1st order CPHF.  IDoFFX=6 NUNeed=     0.
     60 vectors produced by pass  0 Test12= 3.29D-14 1.52D-09 XBig12= 9.93D-02 4.99D-02.
 AX will form    60 AO Fock derivatives at one time.
     60 vectors produced by pass  1 Test12= 3.29D-14 1.52D-09 XBig12= 3.49D-02 3.01D-02.
     60 vectors produced by pass  2 Test12= 3.29D-14 1.52D-09 XBig12= 6.41D-04 3.93D-03.
     60 vectors produced by pass  3 Test12= 3.29D-14 1.52D-09 XBig12= 1.12D-05 5.10D-04.
     60 vectors produced by pass  4 Test12= 3.29D-14 1.52D-09 XBig12= 1.31D-07 5.92D-05.
     60 vectors produced by pass  5 Test12= 3.29D-14 1.52D-09 XBig12= 1.20D-09 4.02D-06.
     60 vectors produced by pass  6 Test12= 3.29D-14 1.52D-09 XBig12= 8.71D-12 3.78D-07.
     34 vectors produced by pass  7 Test12= 3.29D-14 1.52D-09 XBig12= 6.26D-14 3.28D-08.
      3 vectors produced by pass  8 Test12= 3.29D-14 1.52D-09 XBig12= 7.88D-16 2.92D-09.
 InvSVY:  IOpt=1 It=  1 EMax= 5.00D-16
 Solved reduced A of dimension   457 with    66 vectors.
 End of Minotr F.D. properties file   721 does not exist.
 End of Minotr F.D. properties file   722 does not exist.
 End of Minotr F.D. properties file   788 does not exist.

 **********************************************************************

            Population analysis using the SCF Density.

 **********************************************************************

 Orbital symmetries:
       Occupied  (A) (A) (A) (A) (A) (A) (A) (A) (A) (A) (A) (A)
                 (A) (A) (A) (A) (A) (A) (A) (A) (A) (A) (A) (A)
                 (A) (A) (A) (A) (A) (A) (A) (A) (A) (A) (A) (A)
                 (A) (A) (A) (A) (A) (A) (A) (A) (A) (A) (A) (A)
                 (A)
       Virtual   (A) (A) (A) (A) (A) (A) (A) (A) (A) (A) (A) (A)
                 (A) (A) (A) (A) (A) (A) (A) (A) (A) (A) (A) (A)
                 (A) (A) (A) (A) (A) (A) (A) (A) (A) (A) (A) (A)
                 (A) (A) (A) (A) (A) (A) (A) (A) (A) (A) (A) (A)
                 (A) (A) (A) (A) (A) (A) (A) (A) (A) (A) (A) (A)
                 (A) (A) (A) (A) (A) (A) (A) (A) (A) (A) (A) (A)
                 (A) (A) (A) (A) (A) (A) (A) (A) (A) (A) (A) (A)
                 (A) (A) (A) (A) (A) (A) (A) (A) (A) (A) (A) (A)
                 (A) (A) (A) (A) (A) (A) (A) (A) (A) (A) (A) (A)
                 (A) (A) (A) (A) (A) (A) (A) (A) (A) (A) (A) (A)
                 (A) (A) (A) (A) (A) (A) (A) (A) (A) (A) (A) (A)
                 (A) (A) (A) (A) (A) (A) (A) (A) (A) (A) (A) (A)
                 (A) (A) (A) (A) (A) (A) (A) (A) (A) (A) (A) (A)
                 (A) (A) (A) (A) (A) (A) (A) (A) (A) (A) (A) (A)
                 (A) (A) (A) (A) (A) (A) (A) (A) (A) (A) (A) (A)
                 (A) (A) (A) (A) (A) (A) (A) (A) (A) (A) (A) (A)
                 (A) (A) (A) (A) (A) (A) (A) (A) (A) (A) (A) (A)
                 (A) (A) (A) (A) (A) (A) (A) (A) (A) (A) (A) (A)
                 (A) (A) (A) (A) (A) (A) (A) (A) (A) (A) (A) (A)
                 (A) (A) (A) (A) (A) (A) (A) (A) (A) (A) (A) (A)
                 (A) (A) (A) (A) (A) (A) (A) (A) (A) (A) (A) (A)
                 (A) (A) (A) (A) (A) (A) (A) (A) (A) (A) (A) (A)
                 (A) (A) (A) (A) (A) (A) (A) (A) (A) (A) (A) (A)
                 (A) (A) (A) (A) (A) (A) (A) (A) (A) (A) (A) (A)
                 (A) (A) (A) (A) (A) (A) (A) (A) (A) (A) (A) (A)
                 (A) (A) (A) (A) (A) (A) (A) (A) (A) (A) (A) (A)
                 (A) (A) (A) (A) (A) (A) (A) (A) (A) (A) (A) (A)
                 (A) (A) (A) (A) (A) (A) (A) (A) (A) (A) (A) (A)
                 (A) (A) (A) (A) (A) (A) (A) (A) (A) (A) (A) (A)
                 (A) (A) (A) (A) (A) (A) (A) (A) (A) (A) (A) (A)
                 (A) (A) (A) (A) (A) (A) (A) (A) (A) (A) (A) (A)
                 (A) (A) (A) (A) (A) (A) (A) (A) (A) (A) (A) (A)
                 (A) (A) (A) (A) (A) (A) (A) (A) (A) (A) (A) (A)
                 (A) (A) (A) (A) (A) (A) (A) (A) (A) (A) (A) (A)
                 (A) (A) (A) (A) (A) (A) (A) (A) (A) (A) (A) (A)
                 (A) (A) (A) (A) (A) (A) (A) (A) (A) (A) (A) (A)
                 (A) (A) (A) (A) (A) (A) (A) (A) (A) (A) (A)
 The electronic state is 1-A.
 Alpha  occ. eigenvalues --  -65.98464 -18.90815 -18.90581 -18.90456 -18.90055
 Alpha  occ. eigenvalues --  -18.89934 -18.77496 -10.03306 -10.03290 -10.01634
 Alpha  occ. eigenvalues --  -10.01625  -5.09318  -3.44048  -3.43816  -3.43700
 Alpha  occ. eigenvalues --   -0.82560  -0.80322  -0.76037  -0.74822  -0.74365
 Alpha  occ. eigenvalues --   -0.59025  -0.52427  -0.50250  -0.40355  -0.37978
 Alpha  occ. eigenvalues --   -0.32457  -0.28542  -0.27149  -0.26546  -0.26479
 Alpha  occ. eigenvalues --   -0.24405  -0.21749  -0.20918  -0.18872  -0.18059
 Alpha  occ. eigenvalues --   -0.15676  -0.11475  -0.09764  -0.09016  -0.08467
 Alpha  occ. eigenvalues --   -0.07805  -0.06802  -0.06500  -0.06169  -0.03158
 Alpha  occ. eigenvalues --   -0.03006  -0.00999   0.06138   0.06524
 Alpha virt. eigenvalues --    0.37422   0.37892   0.38744   0.41268   0.42069
 Alpha virt. eigenvalues --    0.42461   0.43090   0.44297   0.47183   0.48226
 Alpha virt. eigenvalues --    0.49674   0.49900   0.51246   0.52874   0.53230
 Alpha virt. eigenvalues --    0.54367   0.55473   0.56268   0.57045   0.57208
 Alpha virt. eigenvalues --    0.58713   0.59236   0.63004   0.65680   0.67092
 Alpha virt. eigenvalues --    0.67470   0.68199   0.69292   0.70458   0.70564
 Alpha virt. eigenvalues --    0.71742   0.73217   0.74213   0.74567   0.75134
 Alpha virt. eigenvalues --    0.75689   0.76096   0.76756   0.78197   0.78722
 Alpha virt. eigenvalues --    0.79067   0.79506   0.80921   0.82425   0.83375
 Alpha virt. eigenvalues --    0.83989   0.84254   0.84404   0.86885   0.87721
 Alpha virt. eigenvalues --    0.88117   0.88960   0.89555   0.90950   0.93713
 Alpha virt. eigenvalues --    0.94232   0.95305   0.96643   0.97148   0.99097
 Alpha virt. eigenvalues --    1.01241   1.02621   1.02891   1.05593   1.06204
 Alpha virt. eigenvalues --    1.06492   1.08197   1.09027   1.09629   1.10415
 Alpha virt. eigenvalues --    1.11887   1.12529   1.15102   1.15922   1.17925
 Alpha virt. eigenvalues --    1.18010   1.20024   1.20779   1.21212   1.21948
 Alpha virt. eigenvalues --    1.22393   1.23779   1.25039   1.25508   1.27337
 Alpha virt. eigenvalues --    1.31248   1.32256   1.33743   1.35077   1.35424
 Alpha virt. eigenvalues --    1.36666   1.37790   1.38320   1.38737   1.39171
 Alpha virt. eigenvalues --    1.41232   1.43346   1.43423   1.44115   1.45918
 Alpha virt. eigenvalues --    1.48561   1.49095   1.49815   1.50514   1.51987
 Alpha virt. eigenvalues --    1.53056   1.53598   1.54418   1.54984   1.57530
 Alpha virt. eigenvalues --    1.58053   1.59712   1.60606   1.62171   1.63492
 Alpha virt. eigenvalues --    1.65468   1.65787   1.67276   1.67803   1.69779
 Alpha virt. eigenvalues --    1.70464   1.72033   1.72848   1.74036   1.75564
 Alpha virt. eigenvalues --    1.76070   1.77845   1.79760   1.80953   1.82579
 Alpha virt. eigenvalues --    1.83684   1.85288   1.85701   1.89267   1.91146
 Alpha virt. eigenvalues --    1.91595   1.92641   1.93724   1.94154   1.97546
 Alpha virt. eigenvalues --    1.98459   2.00536   2.04080   2.05532   2.06961
 Alpha virt. eigenvalues --    2.15031   2.15738   2.15825   2.20328   2.21295
 Alpha virt. eigenvalues --    2.22545   2.25579   2.26753   2.27628   2.28560
 Alpha virt. eigenvalues --    2.29197   2.30157   2.31919   2.35234   2.37804
 Alpha virt. eigenvalues --    2.39358   2.40062   2.42121   2.42711   2.45037
 Alpha virt. eigenvalues --    2.45638   2.48559   2.49236   2.49454   2.50651
 Alpha virt. eigenvalues --    2.51248   2.53819   2.55798   2.60582   2.60862
 Alpha virt. eigenvalues --    2.62167   2.62889   2.68317   2.70653   2.72026
 Alpha virt. eigenvalues --    2.72949   2.73601   2.76454   2.78145   2.80441
 Alpha virt. eigenvalues --    2.85373   2.86993   2.88203   2.89323   2.95751
 Alpha virt. eigenvalues --    2.96677   3.00252   3.00408   3.00932   3.01731
 Alpha virt. eigenvalues --    3.02705   3.03709   3.05009   3.13729   3.15175
 Alpha virt. eigenvalues --    3.17165   3.18261   3.18865   3.21068   3.21849
 Alpha virt. eigenvalues --    3.22927   3.23753   3.24398   3.24996   3.25815
 Alpha virt. eigenvalues --    3.30472   3.32293   3.33044   3.33855   3.35035
 Alpha virt. eigenvalues --    3.36042   3.36770   3.37322   3.38307   3.39958
 Alpha virt. eigenvalues --    3.42308   3.42670   3.45149   3.45368   3.47987
 Alpha virt. eigenvalues --    3.49880   3.51332   3.51727   3.53246   3.54088
 Alpha virt. eigenvalues --    3.54878   3.57905   3.58021   3.59526   3.61560
 Alpha virt. eigenvalues --    3.62076   3.65680   3.65966   3.67989   3.68162
 Alpha virt. eigenvalues --    3.69477   3.71669   3.72035   3.75076   3.76024
 Alpha virt. eigenvalues --    3.77373   3.79342   3.81465   3.82557   3.83696
 Alpha virt. eigenvalues --    3.86641   3.87327   3.89592   3.90480   3.92571
 Alpha virt. eigenvalues --    3.93895   3.94283   3.96774   3.96791   4.00345
 Alpha virt. eigenvalues --    4.01978   4.04357   4.04624   4.06675   4.07051
 Alpha virt. eigenvalues --    4.08487   4.12218   4.12734   4.13938   4.15369
 Alpha virt. eigenvalues --    4.15713   4.15865   4.19107   4.19927   4.21483
 Alpha virt. eigenvalues --    4.21670   4.23069   4.24095   4.27322   4.28415
 Alpha virt. eigenvalues --    4.29714   4.31643   4.32484   4.34976   4.35870
 Alpha virt. eigenvalues --    4.37928   4.39469   4.42374   4.42992   4.43880
 Alpha virt. eigenvalues --    4.47887   4.48930   4.49382   4.50628   4.51196
 Alpha virt. eigenvalues --    4.52634   4.55019   4.56345   4.56833   4.57942
 Alpha virt. eigenvalues --    4.59037   4.61322   4.61447   4.63953   4.65255
 Alpha virt. eigenvalues --    4.67563   4.70026   4.72441   4.74466   4.75597
 Alpha virt. eigenvalues --    4.76881   4.77640   4.87671   4.91143   4.93548
 Alpha virt. eigenvalues --    4.94254   4.96876   4.98857   5.00146   5.02577
 Alpha virt. eigenvalues --    5.05861   5.06848   5.12203   5.12863   5.13583
 Alpha virt. eigenvalues --    5.14422   5.14888   5.17671   5.20224   5.23258
 Alpha virt. eigenvalues --    5.24524   5.28141   5.29304   5.30320   5.31571
 Alpha virt. eigenvalues --    5.34058   5.36440   5.41557   5.41901   5.44246
 Alpha virt. eigenvalues --    5.44900   5.47376   5.50929   5.53100   5.54425
 Alpha virt. eigenvalues --    5.55391   5.57281   5.61692   5.63083   5.65363
 Alpha virt. eigenvalues --    5.65575   5.69354   5.70595   5.70958   5.71120
 Alpha virt. eigenvalues --    5.72008   5.76558   5.81391   5.81832   5.84068
 Alpha virt. eigenvalues --    5.84245   5.85410   5.87475   5.87859   5.88914
 Alpha virt. eigenvalues --    5.92316   5.94020   5.96417   5.97686   5.97847
 Alpha virt. eigenvalues --    5.98870   6.00052   6.01132   6.02754   6.04072
 Alpha virt. eigenvalues --    6.07196   6.08043   6.09876   6.12427   6.20104
 Alpha virt. eigenvalues --    6.36219   6.37327   6.37688   6.41195   6.44937
 Alpha virt. eigenvalues --    6.49695   6.51665   6.52629   6.55075   6.55992
 Alpha virt. eigenvalues --    6.58818   6.66101   6.74669   6.90029   6.90578
 Alpha virt. eigenvalues --    6.94064   6.94626   6.97452   6.97993   6.99947
 Alpha virt. eigenvalues --    7.00554   7.03190   7.04611   7.06137   7.08050
 Alpha virt. eigenvalues --    7.11068   7.12160   7.16370   7.18784   7.19635
 Alpha virt. eigenvalues --    7.22000   7.22755   7.26106   7.28070   7.38498
 Alpha virt. eigenvalues --    7.40485   7.41589   7.46082   7.47840   7.48517
 Alpha virt. eigenvalues --    7.54400   7.61073   7.63281   7.66684   7.67844
 Alpha virt. eigenvalues --    7.69755   7.79435   7.85152   7.90186   7.96167
 Alpha virt. eigenvalues --    7.97409   7.99639  12.33849  23.66108  23.66447
 Alpha virt. eigenvalues --   23.80225  23.81841  44.09668  44.25248  44.51692
 Alpha virt. eigenvalues --   44.62071  44.68166  44.75394
          Condensed to atoms (all electrons):
               1          2          3          4          5          6
     1  Si  11.687407   0.350489   0.341661   0.349048   0.485093   0.338299
     2  O    0.350489   8.081017   0.001407  -0.050659  -0.054648  -0.033770
     3  O    0.341661   0.001407   8.045385  -0.032546  -0.034033  -0.047684
     4  O    0.349048  -0.050659  -0.032546   8.099676  -0.056670   0.003262
     5  O    0.485093  -0.054648  -0.034033  -0.056670   7.904175  -0.037231
     6  O    0.338299  -0.033770  -0.047684   0.003262  -0.037231   8.055729
     7  C   -0.070030  -0.119998  -0.001364  -0.005050  -0.009000   0.370602
     8  H    0.016415   0.012929   0.000134  -0.000048   0.004949  -0.066918
     9  H   -0.009119   0.008420   0.000288   0.000142  -0.000735  -0.045331
    10  C   -0.074303   0.355264  -0.000187   0.003115  -0.010746  -0.095616
    11  H   -0.011123  -0.044245  -0.000121  -0.000659  -0.000310   0.006932
    12  H    0.011940  -0.041556   0.000437   0.000698  -0.000350   0.008358
    13  C   -0.072121   0.003019  -0.088749   0.352555  -0.010349  -0.000208
    14  H   -0.011039  -0.000744   0.006257  -0.044676  -0.000388  -0.000099
    15  H    0.007022   0.001448   0.007597  -0.037902  -0.000374   0.000349
    16  C   -0.058589  -0.005900   0.358597  -0.123877  -0.007435  -0.001973
    17  H    0.011640  -0.000009  -0.065544   0.013825   0.003693   0.000259
    18  H   -0.009219   0.000154  -0.045400   0.008859  -0.000660   0.000281
    19  O    0.099063  -0.010236  -0.012094  -0.008019   0.000008  -0.010201
    20  H   -0.058071   0.003121   0.009692   0.002981   0.000002   0.008912
    21  H   -0.050029   0.000004   0.001691   0.000424   0.309870   0.002166
               7          8          9         10         11         12
     1  Si  -0.070030   0.016415  -0.009119  -0.074303  -0.011123   0.011940
     2  O   -0.119998   0.012929   0.008420   0.355264  -0.044245  -0.041556
     3  O   -0.001364   0.000134   0.000288  -0.000187  -0.000121   0.000437
     4  O   -0.005050  -0.000048   0.000142   0.003115  -0.000659   0.000698
     5  O   -0.009000   0.004949  -0.000735  -0.010746  -0.000310  -0.000350
     6  O    0.370602  -0.066918  -0.045331  -0.095616   0.006932   0.008358
     7  C    5.071364   0.299065   0.331168  -0.013921   0.031051  -0.017122
     8  H    0.299065   0.947085  -0.119658  -0.039090  -0.030230   0.020547
     9  H    0.331168  -0.119658   0.858715   0.003217   0.015411  -0.020013
    10  C   -0.013921  -0.039090   0.003217   5.395565   0.219537   0.217701
    11  H    0.031051  -0.030230   0.015411   0.219537   0.928587  -0.065405
    12  H   -0.017122   0.020547  -0.020013   0.217701  -0.065405   0.783174
    13  C    0.006237  -0.000132   0.000107  -0.019652   0.000288   0.010182
    14  H   -0.000208  -0.000000   0.000001   0.000283  -0.000014  -0.000072
    15  H   -0.002370  -0.000021   0.000024   0.010111  -0.000076  -0.005994
    16  C   -0.007866   0.000363  -0.000012   0.007422  -0.000225  -0.002994
    17  H    0.000343  -0.000023   0.000004  -0.000084  -0.000001  -0.000032
    18  H   -0.000072   0.000005  -0.000008   0.000165   0.000000   0.000013
    19  O    0.039057   0.000014  -0.001200  -0.102093   0.002849   0.098689
    20  H   -0.002213   0.000324   0.000631   0.006331  -0.000559  -0.007100
    21  H    0.000295  -0.000328   0.000045   0.000022   0.000025  -0.000027
              13         14         15         16         17         18
     1  Si  -0.072121  -0.011039   0.007022  -0.058589   0.011640  -0.009219
     2  O    0.003019  -0.000744   0.001448  -0.005900  -0.000009   0.000154
     3  O   -0.088749   0.006257   0.007597   0.358597  -0.065544  -0.045400
     4  O    0.352555  -0.044676  -0.037902  -0.123877   0.013825   0.008859
     5  O   -0.010349  -0.000388  -0.000374  -0.007435   0.003693  -0.000660
     6  O   -0.000208  -0.000099   0.000349  -0.001973   0.000259   0.000281
     7  C    0.006237  -0.000208  -0.002370  -0.007866   0.000343  -0.000072
     8  H   -0.000132  -0.000000  -0.000021   0.000363  -0.000023   0.000005
     9  H    0.000107   0.000001   0.000024  -0.000012   0.000004  -0.000008
    10  C   -0.019652   0.000283   0.010111   0.007422  -0.000084   0.000165
    11  H    0.000288  -0.000014  -0.000076  -0.000225  -0.000001   0.000000
    12  H    0.010182  -0.000072  -0.005994  -0.002994  -0.000032   0.000013
    13  C    5.435231   0.214472   0.213441  -0.044290  -0.037189  -0.001018
    14  H    0.214472   0.937055  -0.066825   0.032557  -0.031571   0.015775
    15  H    0.213441  -0.066825   0.781468  -0.012695   0.021449  -0.018839
    16  C   -0.044290   0.032557  -0.012695   5.090284   0.304210   0.337405
    17  H   -0.037189  -0.031571   0.021449   0.304210   0.939456  -0.118214
    18  H   -0.001018   0.015775  -0.018839   0.337405  -0.118214   0.848885
    19  O   -0.111733   0.002941   0.100740   0.048868   0.000106  -0.001077
    20  H    0.010858  -0.000675  -0.009220  -0.005786   0.000409   0.001279
    21  H   -0.000041  -0.000026  -0.000024  -0.000026  -0.000148   0.000024
              19         20         21
     1  Si   0.099063  -0.058071  -0.050029
     2  O   -0.010236   0.003121   0.000004
     3  O   -0.012094   0.009692   0.001691
     4  O   -0.008019   0.002981   0.000424
     5  O    0.000008   0.000002   0.309870
     6  O   -0.010201   0.008912   0.002166
     7  C    0.039057  -0.002213   0.000295
     8  H    0.000014   0.000324  -0.000328
     9  H   -0.001200   0.000631   0.000045
    10  C   -0.102093   0.006331   0.000022
    11  H    0.002849  -0.000559   0.000025
    12  H    0.098689  -0.007100  -0.000027
    13  C   -0.111733   0.010858  -0.000041
    14  H    0.002941  -0.000675  -0.000026
    15  H    0.100740  -0.009220  -0.000024
    16  C    0.048868  -0.005786  -0.000026
    17  H    0.000106   0.000409  -0.000148
    18  H   -0.001077   0.001279   0.000024
    19  O    8.490661   0.275795   0.000105
    20  H    0.275795   0.641696  -0.000080
    21  H    0.000105  -0.000080   0.619216
 Mulliken charges:
               1
     1  Si   0.725566
     2  O   -0.455505
     3  O   -0.445424
     4  O   -0.474477
     5  O   -0.484860
     6  O   -0.456119
     7  C    0.100033
     8  H   -0.045380
     9  H   -0.022097
    10  C    0.136961
    11  H   -0.051715
    12  H    0.008924
    13  C    0.139092
    14  H   -0.053003
    15  H    0.010690
    16  C    0.091959
    17  H   -0.042579
    18  H   -0.018339
    19  O   -0.902242
    20  H    0.121672
    21  H    0.116843
 Sum of Mulliken charges =  -2.00000
 Mulliken charges with hydrogens summed into heavy atoms:
               1
     1  Si   0.725566
     2  O   -0.455505
     3  O   -0.445424
     4  O   -0.474477
     5  O   -0.368017
     6  O   -0.456119
     7  C    0.032556
    10  C    0.094169
    13  C    0.096779
    16  C    0.031041
    19  O   -0.780570
 APT charges:
               1
     1  Si  -0.061849
     2  O   -0.344701
     3  O   -0.354635
     4  O   -0.352828
     5  O   -0.783738
     6  O   -0.357147
     7  C   -0.538836
     8  H    0.317999
     9  H    0.358037
    10  C   -0.394474
    11  H    0.367603
    12  H    0.147444
    13  C   -0.391965
    14  H    0.369152
    15  H    0.147225
    16  C   -0.556942
    17  H    0.328212
    18  H    0.355357
    19  O   -0.824094
    20  H   -0.006648
    21  H    0.576830
 Sum of APT charges =  -2.00000
 APT charges with hydrogens summed into heavy atoms:
               1
     1  Si  -0.061849
     2  O   -0.344701
     3  O   -0.354635
     4  O   -0.352828
     5  O   -0.206908
     6  O   -0.357147
     7  C    0.137200
    10  C    0.120573
    13  C    0.124411
    16  C    0.126626
    19  O   -0.830742
 Electronic spatial extent (au):  <R**2>=           1792.4380
 Charge=             -2.0000 electrons
 Dipole moment (field-independent basis, Debye):
    X=             -0.0740    Y=             -5.5209    Z=             -0.3394  Tot=              5.5319
 Quadrupole moment (field-independent basis, Debye-Ang):
   XX=            -94.4007   YY=           -113.6429   ZZ=            -91.3135
   XY=             -0.4815   XZ=              0.3356   YZ=              4.7400
 Traceless Quadrupole moment (field-independent basis, Debye-Ang):
   XX=              5.3850   YY=            -13.8572   ZZ=              8.4722
   XY=             -0.4815   XZ=              0.3356   YZ=              4.7400
 Octapole moment (field-independent basis, Debye-Ang**2):
  XXX=              0.0784  YYY=            -83.4773  ZZZ=             -0.6587  XYY=             -1.0801
  XXY=             -0.6159  XXZ=              0.0977  XZZ=             -0.1163  YZZ=             -1.7157
  YYZ=             -9.4616  XYZ=             -0.5909
 Hexadecapole moment (field-independent basis, Debye-Ang**3):
 XXXX=          -1526.9490 YYYY=           -942.9345 ZZZZ=           -449.5966 XXXY=              0.4621
 XXXZ=              0.9653 YYYX=             -4.7952 YYYZ=             32.5744 ZZZX=              0.2685
 ZZZY=             10.3711 XXYY=           -359.7333 XXZZ=           -335.0148 YYZZ=           -169.8258
 XXYZ=              6.4724 YYXZ=              0.6967 ZZXY=              0.8762
 N-N= 8.660676275599D+02 E-N=-3.891625774988D+03  KE= 8.963214900154D+02
  Exact polarizability:       0.000       0.000       0.000       0.000       0.000       0.000
 Approx polarizability:     116.892      -0.146     103.393       0.180       2.274     103.522
   1 Symmetry operations used in ECPInt.
 ECPInt:  NShTT=   17020 NPrTT=   47563 LenC2=   16251 LenP2D=   35130.
 LDataN:  DoStor=T MaxTD1= 8 Len=  415
 Calling FoFJK, ICntrl=    100127 FMM=F ISym2X=0 I1Cent= 0 IOpClX= 0 NMat=1 NMatS=1 NMatT=0.
 ***** Axes restored to original set *****
 -------------------------------------------------------------------
 Center     Atomic                   Forces (Hartrees/Bohr)
 Number     Number              X              Y              Z
 -------------------------------------------------------------------
      1       14          -0.023121739   -0.005388771   -0.003798053
      2        8           0.002593781    0.004329811   -0.002371963
      3        8           0.003074506   -0.001620811    0.001022821
      4        8           0.004679323   -0.002624885   -0.001951945
      5        8          -0.007641691   -0.001200349    0.005296270
      6        8           0.002708014    0.003546545    0.000370502
      7        6           0.000269653   -0.002689480    0.000871669
      8        1          -0.000571839    0.000063806    0.000042346
      9        1           0.000451281    0.000694217    0.000269770
     10        6          -0.000111423   -0.002686931   -0.000566573
     11        1          -0.000240078    0.000972807   -0.000473781
     12        1           0.000519888    0.000652094    0.000062177
     13        6          -0.001408754    0.001857655   -0.000952560
     14        1           0.000264223   -0.000855270   -0.000218393
     15        1           0.000662282   -0.000337982    0.000085509
     16        6          -0.000784771    0.001795973    0.000384680
     17        1          -0.000300623   -0.000368173   -0.000008269
     18        1           0.000597172   -0.000322298    0.000276633
     19        8           0.001700931    0.000460711   -0.000126337
     20        1          -0.000534242   -0.000118714   -0.000039784
     21        1           0.017194105    0.003840045    0.001825279
 -------------------------------------------------------------------
 Cartesian Forces:  Max     0.023121739 RMS     0.004199616
 FormGI is forming the generalized inverse of G from B-inverse, IUseBI=4.

 GradGradGradGradGradGradGradGradGradGradGradGradGradGradGradGradGradGrad
 Berny optimization.
 Internal  Forces:  Max     0.022981297 RMS     0.002657002
 Search for a saddle point.
 Step number   1 out of a maximum of  126
 All quantities printed in internal units (Hartrees-Bohrs-Radians)
 Swapping is turned off.
 Second derivative matrix not updated -- analytic derivatives used.
 ITU=  0
     Eigenvalues ---   -0.00949  -0.00150   0.00140   0.00174   0.00210
     Eigenvalues ---    0.00279   0.00508   0.00567   0.00679   0.00796
     Eigenvalues ---    0.01208   0.02353   0.03158   0.03488   0.03644
     Eigenvalues ---    0.04351   0.04377   0.04664   0.04947   0.05129
     Eigenvalues ---    0.05309   0.05414   0.06019   0.06495   0.07163
     Eigenvalues ---    0.08288   0.09487   0.09558   0.09960   0.09974
     Eigenvalues ---    0.10239   0.11416   0.11812   0.13301   0.15864
     Eigenvalues ---    0.17061   0.18036   0.19091   0.21371   0.21910
     Eigenvalues ---    0.24058   0.26451   0.26583   0.27907   0.28010
     Eigenvalues ---    0.29789   0.30009   0.30163   0.30408   0.30681
     Eigenvalues ---    0.30870   0.34487   0.34579   0.38864   0.40522
     Eigenvalues ---    0.53809   0.54050
 Eigenvectors required to have negative eigenvalues:
                          A42       A35       A28       D60       D45
   1                    0.38182  -0.34058  -0.33712   0.30506   0.28522
                          D46       A44       A43       D59       D9
   1                   -0.25186   0.24278   0.23617  -0.22896   0.16564
 RFO step:  Lambda0=1.487971098D-03 Lambda=-9.15054050D-03.
 Linear search not attempted -- option 19 set.
 Maximum step size (   0.300) exceeded in Quadratic search.
    -- Step size scaled by   0.610
 Iteration  1 RMS(Cart)=  0.05787613 RMS(Int)=  0.00803188
 Iteration  2 RMS(Cart)=  0.00703844 RMS(Int)=  0.00132404
 Iteration  3 RMS(Cart)=  0.00015709 RMS(Int)=  0.00131276
 Iteration  4 RMS(Cart)=  0.00000009 RMS(Int)=  0.00131276
 Variable       Old X    -DE/DX   Delta X   Delta X   Delta X     New X
                                 (Linear)    (Quad)   (Total)
    R1        3.27403   0.00362   0.00000   0.00844   0.00755   3.28158
    R2        3.27279   0.00240   0.00000   0.01159   0.01076   3.28355
    R3        3.28787   0.00366   0.00000   0.02442   0.02435   3.31222
    R4        3.29338  -0.00895   0.00000  -0.00835  -0.00835   3.28503
    R5        3.28792   0.00217   0.00000   0.00934   0.00910   3.29702
    R6        2.63128  -0.00104   0.00000  -0.00603  -0.00644   2.62484
    R7        2.61358  -0.00065   0.00000  -0.00474  -0.00552   2.60806
    R8        2.63062  -0.00100   0.00000  -0.00586  -0.00641   2.62421
    R9        1.81414  -0.01236   0.00000  -0.00521  -0.00521   1.80893
   R10        2.61310  -0.00145   0.00000  -0.00514  -0.00575   2.60734
   R11        2.09730   0.00057   0.00000   0.00165   0.00165   2.09894
   R12        2.08167   0.00085   0.00000   0.00336   0.00336   2.08503
   R13        2.88818   0.00085   0.00000   0.00385   0.00365   2.89183
   R14        2.08347   0.00106   0.00000   0.00331   0.00331   2.08678
   R15        2.07841   0.00107   0.00000  -0.00091  -0.00052   2.07788
   R16        4.45874   0.00013   0.00000  -0.04289  -0.04142   4.41732
   R17        2.08456   0.00086   0.00000   0.00325   0.00325   2.08781
   R18        2.07841   0.00099   0.00000  -0.00101  -0.00069   2.07772
   R19        2.88968   0.00083   0.00000   0.00365   0.00400   2.89368
   R20        4.44726   0.00018   0.00000  -0.01837  -0.01738   4.42989
   R21        2.09674   0.00046   0.00000   0.00242   0.00242   2.09916
   R22        2.08107   0.00071   0.00000   0.00272   0.00272   2.08379
   R23        1.81180   0.00006   0.00000  -0.00077  -0.00077   1.81103
    A1        2.79610  -0.00315   0.00000  -0.01966  -0.02088   2.77523
    A2        1.57248   0.00021   0.00000   0.00135   0.00050   1.57298
    A3        1.73198   0.00270   0.00000   0.00264   0.00331   1.73530
    A4        1.55516  -0.00092   0.00000   0.00388   0.00415   1.55931
    A5        1.55367  -0.00105   0.00000  -0.00121  -0.00028   1.55339
    A6        1.75379   0.00043   0.00000   0.01760   0.01809   1.77188
    A7        1.51012  -0.00032   0.00000   0.00412   0.00426   1.51438
    A8        1.70245   0.00236   0.00000  -0.02460  -0.02461   1.67784
    A9        2.87094  -0.00368   0.00000   0.03920   0.03910   2.91004
   A10        1.70817   0.00128   0.00000  -0.01480  -0.01465   1.69352
   A11        1.94983   0.00029   0.00000   0.00037  -0.00046   1.94936
   A12        1.99595   0.00010   0.00000  -0.00166  -0.00221   1.99375
   A13        1.94187   0.00060   0.00000  -0.00226  -0.00337   1.93851
   A14        2.11820  -0.02298   0.00000  -0.21233  -0.21233   1.90587
   A15        1.98845   0.00013   0.00000  -0.00620  -0.00622   1.98223
   A16        1.93676  -0.00031   0.00000   0.00113   0.00164   1.93840
   A17        1.92956  -0.00005   0.00000   0.00254   0.00246   1.93202
   A18        1.85568   0.00067   0.00000   0.00486   0.00420   1.85988
   A19        1.87713   0.00009   0.00000  -0.00235  -0.00243   1.87469
   A20        1.92173   0.00035   0.00000  -0.00221  -0.00202   1.91971
   A21        1.94386  -0.00076   0.00000  -0.00395  -0.00385   1.94001
   A22        1.83687   0.00007   0.00000   0.00562   0.00630   1.84317
   A23        1.92773  -0.00031   0.00000   0.00197   0.00167   1.92939
   A24        1.90438   0.00096   0.00000  -0.00056  -0.00071   1.90367
   A25        1.94636   0.00046   0.00000  -0.00330  -0.00344   1.94292
   A26        1.90392  -0.00081   0.00000  -0.00120  -0.00186   1.90206
   A27        1.94135  -0.00033   0.00000  -0.00213  -0.00158   1.93978
   A28        2.23852   0.00097   0.00000  -0.08796  -0.08707   2.15145
   A29        1.92839  -0.00020   0.00000   0.00259   0.00301   1.93139
   A30        1.91168   0.00087   0.00000   0.00355   0.00232   1.91400
   A31        1.83667  -0.00007   0.00000   0.00500   0.00552   1.84219
   A32        1.94148  -0.00036   0.00000  -0.00262  -0.00267   1.93880
   A33        1.94519   0.00029   0.00000  -0.00396  -0.00481   1.94038
   A34        1.89729  -0.00050   0.00000  -0.00414  -0.00298   1.89432
   A35        2.24065   0.00100   0.00000  -0.09040  -0.08903   2.15161
   A36        1.85789   0.00062   0.00000   0.00671   0.00689   1.86479
   A37        1.93290  -0.00019   0.00000   0.00038   0.00064   1.93354
   A38        1.92818  -0.00007   0.00000   0.00314   0.00277   1.93095
   A39        1.92447   0.00023   0.00000  -0.00378  -0.00401   1.92046
   A40        1.94169  -0.00066   0.00000  -0.00357  -0.00346   1.93823
   A41        1.87947   0.00006   0.00000  -0.00285  -0.00285   1.87662
   A42        2.07063  -0.00091   0.00000   0.09576   0.09405   2.16468
   A43        1.71446  -0.00044   0.00000   0.08398   0.07703   1.79148
   A44        1.71671  -0.00040   0.00000   0.06148   0.05376   1.77046
    D1       -0.97553   0.00027   0.00000  -0.05851  -0.05814  -1.03366
    D2       -2.50042   0.00239   0.00000  -0.06116  -0.06114  -2.56156
    D3        2.07830  -0.00010   0.00000  -0.03652  -0.03635   2.04195
    D4        0.37086  -0.00126   0.00000  -0.02218  -0.02221   0.34866
    D5       -1.53715   0.00050   0.00000  -0.00435  -0.00409  -1.54124
    D6       -0.00897  -0.00138   0.00000  -0.00106  -0.00075  -0.00972
    D7        1.69255   0.00083   0.00000  -0.02617  -0.02577   1.66678
    D8       -2.89121   0.00206   0.00000  -0.04115  -0.04054  -2.93175
    D9        2.39682  -0.00209   0.00000  -0.01309  -0.01438   2.38244
   D10       -0.39961   0.00103   0.00000   0.00660   0.00653  -0.39308
   D11       -2.15274   0.00072   0.00000  -0.01082  -0.01152  -2.16425
   D12        0.87846  -0.00012   0.00000  -0.02518  -0.02601   0.85244
   D13        0.81363   0.00068   0.00000   0.20443   0.20406   1.01769
   D14       -2.35816   0.00029   0.00000   0.21023   0.21015  -2.14801
   D15       -0.78042  -0.00030   0.00000   0.20676   0.20725  -0.57317
   D16        2.39092   0.00033   0.00000   0.20635   0.20632   2.59723
   D17        0.04674   0.00150   0.00000   0.01879   0.01888   0.06562
   D18        2.85120  -0.00145   0.00000  -0.00317  -0.00417   2.84704
   D19        1.56745  -0.00029   0.00000   0.03019   0.02976   1.59721
   D20       -1.68462  -0.00111   0.00000   0.01569   0.01512  -1.66951
   D21       -0.64086   0.00104   0.00000   0.02026   0.01992  -0.62094
   D22       -2.74380   0.00062   0.00000   0.01980   0.01938  -2.72442
   D23        1.40021   0.00060   0.00000   0.02156   0.02074   1.42096
   D24        0.36586   0.00107   0.00000  -0.00421  -0.00460   0.36126
   D25       -1.72624   0.00052   0.00000  -0.00393  -0.00431  -1.73055
   D26        2.47610   0.00061   0.00000  -0.00265  -0.00295   2.47315
   D27        2.75580  -0.00055   0.00000  -0.01059  -0.01122   2.74459
   D28       -1.38274  -0.00055   0.00000  -0.00976  -0.01100  -1.39374
   D29        0.65404  -0.00075   0.00000  -0.01021  -0.01038   0.64365
   D30        1.68867  -0.00048   0.00000  -0.00946  -0.00946   1.67922
   D31       -2.51321  -0.00060   0.00000  -0.01003  -0.00984  -2.52305
   D32       -0.40093  -0.00114   0.00000  -0.01039  -0.01051  -0.41143
   D33        0.64757   0.00040   0.00000  -0.00238  -0.00193   0.64564
   D34        2.73819   0.00032   0.00000   0.00164   0.00205   2.74025
   D35       -1.39382  -0.00036   0.00000  -0.00412  -0.00353  -1.39735
   D36       -1.45178   0.00018   0.00000  -0.00542  -0.00528  -1.45707
   D37        0.63884   0.00009   0.00000  -0.00139  -0.00130   0.63754
   D38        2.79001  -0.00058   0.00000  -0.00715  -0.00688   2.78313
   D39        2.75065   0.00032   0.00000   0.00149   0.00149   2.75214
   D40       -1.44191   0.00024   0.00000   0.00552   0.00548  -1.43643
   D41        0.70926  -0.00044   0.00000  -0.00024  -0.00010   0.70916
   D42       -0.71166  -0.00038   0.00000   0.03141   0.03117  -0.68049
   D43        1.28640  -0.00022   0.00000   0.03713   0.03726   1.32367
   D44       -2.84263  -0.00042   0.00000   0.03070   0.03059  -2.81205
   D45        0.71096  -0.00066   0.00000   0.03544   0.04002   0.75098
   D46       -1.10877   0.00033   0.00000  -0.11481  -0.11901  -1.22778
   D47        0.81254   0.00030   0.00000   0.02838   0.02698   0.83952
   D48        2.94940   0.00040   0.00000   0.03234   0.03059   2.97998
   D49       -1.18560   0.00019   0.00000   0.02280   0.02080  -1.16480
   D50       -0.63510  -0.00040   0.00000   0.00491   0.00480  -0.63030
   D51        1.46246  -0.00013   0.00000   0.00728   0.00745   1.46991
   D52       -2.73665  -0.00033   0.00000  -0.00105  -0.00089  -2.73754
   D53       -2.72576  -0.00028   0.00000   0.00088   0.00042  -2.72533
   D54       -0.62820  -0.00001   0.00000   0.00325   0.00308  -0.62512
   D55        1.45588  -0.00021   0.00000  -0.00508  -0.00527   1.45061
   D56        1.41148   0.00033   0.00000   0.00963   0.00893   1.42041
   D57       -2.77415   0.00060   0.00000   0.01200   0.01159  -2.76256
   D58       -0.69008   0.00040   0.00000   0.00367   0.00324  -0.68684
   D59       -0.80267   0.00069   0.00000  -0.09327  -0.09781  -0.90048
   D60        1.01577  -0.00033   0.00000   0.07011   0.07274   1.08852
         Item               Value     Threshold  Converged?
 Maximum Force            0.022981     0.000450     NO 
 RMS     Force            0.002657     0.000300     NO 
 Maximum Displacement     0.443349     0.001800     NO 
 RMS     Displacement     0.060085     0.001200     NO 
 Predicted change in Energy=-3.620401D-03
 GradGradGradGradGradGradGradGradGradGradGradGradGradGradGradGradGradGrad

                          Input orientation:                          
 ---------------------------------------------------------------------
 Center     Atomic      Atomic             Coordinates (Angstroms)
 Number     Number       Type             X           Y           Z
 ---------------------------------------------------------------------
      1         14           0        0.377315    0.000310    0.088268
      2          8           0        0.231751    1.152099   -1.203150
      3          8           0        1.126267   -0.970369    1.319539
      4          8           0        0.718351   -1.266096   -1.074511
      5          8           0       -1.301151   -0.395604    0.307147
      6          8           0        0.436540    1.318199    1.230049
      7          6           0        0.266412    2.558618    0.650295
      8          1           0       -0.790885    2.891236    0.722234
      9          1           0        0.886141    3.315729    1.160291
     10          6           0        0.670181    2.412728   -0.818539
     11          1           0        0.201405    3.193378   -1.443244
     12          1           0        1.766555    2.450161   -0.893457
     13          6           0        1.765603   -2.070128   -0.644154
     14          1           0        1.720953   -3.061488   -1.129789
     15          1           0        2.723645   -1.571548   -0.850153
     16          6           0        1.595094   -2.189173    0.872928
     17          1           0        0.874924   -3.000302    1.112443
     18          1           0        2.551778   -2.439911    1.360591
     19          8           0        3.154197    0.665701   -0.298248
     20          1           0        3.071816    0.645237    0.656343
     21          1           0       -1.654606   -0.734077   -0.515545
 ---------------------------------------------------------------------
                    Distance matrix (angstroms):
                    1          2          3          4          5
     1  Si   0.000000
     2  O    1.736538   0.000000
     3  O    1.737578   3.415990   0.000000
     4  O    1.752753   2.470018   2.446493   0.000000
     5  O    1.738362   2.650691   2.692146   2.597137   0.000000
     6  O    1.744707   2.447444   2.391918   3.474046   2.609298
     7  C    2.621663   2.326963   3.693371   4.219910   3.361908
     8  H    3.181832   2.788814   4.352498   4.773834   3.352012
     9  H    3.521383   3.270378   4.295772   5.100550   4.391593
    10  C    2.593806   1.389004   4.027994   3.688032   3.611100
    11  H    3.545723   2.055574   5.081843   4.504453   4.266419
    12  H    2.982540   2.033839   4.123997   3.865499   4.353234
    13  C    2.598172   3.612191   2.339725   1.388673   3.621323
    14  H    3.558600   4.469610   3.275002   2.057110   4.278415
    15  H    2.976010   3.708422   2.760543   2.040795   4.349847
    16  C    2.625360   4.163280   1.380125   2.326644   3.453293
    17  H    3.209396   4.797715   2.055892   2.795489   3.488303
    18  H    3.507388   4.985762   2.047760   3.266347   4.487092
    19  O    2.881529   3.097760   3.066995   3.204335   4.619847
    20  H    2.828246   3.432287   2.614416   3.491110   4.508672
    21  H    2.243350   2.754778   3.340154   2.495278   0.957245
                    6          7          8          9         10
     6  O    0.000000
     7  C    1.379746   0.000000
     8  H    2.058857   1.110714   0.000000
     9  H    2.048691   1.103348   1.784518   0.000000
    10  C    2.334372   1.530290   2.176618   2.185822   0.000000
    11  H    3.273848   2.188619   2.401088   2.694852   1.104275
    12  H    2.749465   2.155311   3.057042   2.396293   1.099569
    13  C    4.093874   5.034725   5.746110   5.747776   4.618046
    14  H    5.138113   6.072065   6.721178   6.827171   5.582834
    15  H    4.231870   5.034641   5.894129   5.594978   4.482428
    16  C    3.710989   4.935229   5.614816   5.557800   4.989390
    17  H    4.342288   5.611191   6.134933   6.316222   5.750783
    18  H    4.314471   5.541905   6.324715   5.995152   5.642438
    19  O    3.185452   3.580806   4.643066   3.780749   3.081094
    20  H    2.779693   3.395785   4.468703   3.487501   3.326732
    21  H    3.410547   3.986393   3.926959   5.066039   3.924133
                   11         12         13         14         15
    11  H    0.000000
    12  H    1.817782   0.000000
    13  C    5.548851   4.527159   0.000000
    14  H    6.444426   5.516902   1.104821   0.000000
    15  H    5.423833   4.134252   1.099482   1.817555   0.000000
    16  C    6.023195   4.967187   1.531269   2.188069   2.150372
    17  H    6.734006   5.875899   2.178111   2.397313   3.051375
    18  H    6.717119   5.441517   2.184906   2.697891   2.381382
    19  O    4.052054   2.337546   3.087491   4.078919   2.344196
    20  H    4.374991   2.713547   3.281873   4.330693   2.702755
    21  H    4.441880   4.688980   3.674153   4.145906   4.470168
                   16         17         18         19         20
    16  C    0.000000
    17  H    1.110829   0.000000
    18  H    1.102692   1.785345   0.000000
    19  O    3.457276   4.541443   3.572041   0.000000
    20  H    3.203358   4.280691   3.206952   0.958357   0.000000
    21  H    3.821742   3.766251   4.911560   5.013101   5.061116
                   21
    21  H    0.000000
 Stoichiometry    C4H10O6Si(2-)
 Framework group  C1[X(C4H10O6Si)]
 Deg. of freedom    57
 Full point group                 C1      NOp   1
 Largest Abelian subgroup         C1      NOp   1
 Largest concise Abelian subgroup C1      NOp   1
                         Standard orientation:                         
 ---------------------------------------------------------------------
 Center     Atomic      Atomic             Coordinates (Angstroms)
 Number     Number       Type             X           Y           Z
 ---------------------------------------------------------------------
      1         14           0       -0.009395   -0.442323   -0.026208
      2          8           0       -1.203735   -0.080739   -1.233840
      3          8           0        1.164703   -0.172958    1.226035
      4          8           0        1.260836   -0.243869   -1.217541
      5          8           0       -0.055410   -2.178856   -0.091291
      6          8           0       -1.226136   -0.242545    1.208147
      7          6           0       -2.487605    0.001172    0.705161
      8          1           0       -3.080580   -0.935970    0.643264
      9          1           0       -3.039641    0.698673    1.357943
     10          6           0       -2.293143    0.590585   -0.693611
     11          1           0       -3.189989    0.441461   -1.320390
     12          1           0       -2.047260    1.658280   -0.600769
     13          6           0        2.323652    0.483162   -0.697674
     14          1           0        3.251898    0.271607   -1.258239
     15          1           0        2.084012    1.555983   -0.719789
     16          6           0        2.447111    0.041963    0.763450
     17          1           0        3.051307   -0.887766    0.830475
     18          1           0        2.954433    0.811916    1.368203
     19          8           0        0.055862    2.437231    0.058198
     20          1           0        0.087469    2.197031    0.985427
     21          1           0        0.150838   -2.466093   -0.980826
 ---------------------------------------------------------------------
 Rotational constants (GHZ):           1.5021951           0.8924679           0.7893043
 Standard basis: def2TZVPP (5D, 7F)
 There are   558 symmetry adapted cartesian basis functions of A   symmetry.
 There are   492 symmetry adapted basis functions of A   symmetry.
   492 basis functions,   749 primitive gaussians,   558 cartesian basis functions
    49 alpha electrons       49 beta electrons
       nuclear repulsion energy       870.1840554766 Hartrees.
 NAtoms=   21 NActive=   21 NUniq=   21 SFac= 1.00D+00 NAtFMM=   60 NAOKFM=F Big=F
 Integral buffers will be    131072 words long.
 Raffenetti 2 integral format.
 Two-electron integral symmetry is turned on.
 Nuclear repulsion after empirical dispersion term =      870.1714184762 Hartrees.
 One-electron integrals computed using PRISM.
   1 Symmetry operations used in ECPInt.
 ECPInt:  NShTT=   17020 NPrTT=   47563 LenC2=   16260 LenP2D=   35221.
 LDataN:  DoStor=T MaxTD1= 6 Len=  172
 NBasis=   492 RedAO= T EigKep=  2.54D-04  NBF=   492
 NBsUse=   492 1.00D-06 EigRej= -1.00D+00 NBFU=   492
 Initial guess from the checkpoint file:  "Convert_HbiLmLtoPbiLmLTS_to_HbiLtoPbiLTS_calcfc.chk"
 B after Tr=    -0.000000   -0.000000    0.000000
         Rot=    0.999996    0.000719    0.002634   -0.000104 Ang=   0.31 deg.
 ExpMin= 7.01D-02 ExpMax= 4.48D+04 ExpMxC= 1.53D+03 IAcc=3 IRadAn=         5 AccDes= 0.00D+00
 Harris functional with IExCor= 4639 and IRadAn=       5 diagonalized for initial guess.
 HarFok:  IExCor= 4639 AccDes= 0.00D+00 IRadAn=         5 IDoV= 1 UseB2=F ITyADJ=14
 ICtDFT=  3500011 ScaDFX=  1.000000  1.000000  1.000000  1.000000
 FoFCou: FMM=F IPFlag=           0 FMFlag=      100000 FMFlg1=           0
         NFxFlg=           0 DoJE=T BraDBF=F KetDBF=T FulRan=T
         wScrn=  0.000000 ICntrl=       500 IOpCl=  0 I1Cent=   200000004 NGrid=           0
         NMat0=    1 NMatS0=      1 NMatT0=    0 NMatD0=    1 NMtDS0=    0 NMtDT0=    0
 Petite list used in FoFCou.
 Requested convergence on RMS density matrix=1.00D-08 within 128 cycles.
 Requested convergence on MAX density matrix=1.00D-06.
 Requested convergence on             energy=1.00D-06.
 No special actions if energy rises.
 Integral accuracy reduced to 1.0D-05 until final iterations.
 Initial convergence to 1.0D-05 achieved.  Increase integral accuracy.
 SCF Done:  E(RwB97XD) =  -899.434951268     A.U. after   14 cycles
            NFock= 14  Conv=0.92D-08     -V/T= 2.0035
   1 Symmetry operations used in ECPInt.
 ECPInt:  NShTT=   17020 NPrTT=   47563 LenC2=   16260 LenP2D=   35221.
 LDataN:  DoStor=T MaxTD1= 7 Len=  274
 Calling FoFJK, ICntrl=      2127 FMM=F ISym2X=0 I1Cent= 0 IOpClX= 0 NMat=1 NMatS=1 NMatT=0.
 ***** Axes restored to original set *****
 -------------------------------------------------------------------
 Center     Atomic                   Forces (Hartrees/Bohr)
 Number     Number              X              Y              Z
 -------------------------------------------------------------------
      1       14          -0.009209526   -0.001483874   -0.000000718
      2        8           0.000943286    0.001988608   -0.001250590
      3        8           0.001239798   -0.001344784    0.000480920
      4        8           0.001462251   -0.001097607   -0.001022085
      5        8          -0.002184188   -0.000191480   -0.000745035
      6        8           0.001366877    0.001792915    0.000452937
      7        6           0.000182844   -0.001098224    0.000360177
      8        1          -0.000270284    0.000065722   -0.000014691
      9        1           0.000154825    0.000392904    0.000110225
     10        6           0.000070068   -0.001225084   -0.000401151
     11        1          -0.000042634    0.000471666   -0.000162259
     12        1           0.000100045    0.000591505   -0.000050658
     13        6          -0.000305055    0.000594136   -0.000434049
     14        1           0.000100792   -0.000344777   -0.000099653
     15        1           0.000314334   -0.000341893    0.000153731
     16        6          -0.000167684    0.000792000    0.000135224
     17        1          -0.000085888   -0.000254818   -0.000025980
     18        1           0.000280446   -0.000237546    0.000073679
     19        8           0.000605971    0.000027086   -0.000094282
     20        1          -0.000152162   -0.000046756   -0.000002160
     21        1           0.005595884    0.000950302    0.002536419
 -------------------------------------------------------------------
 Cartesian Forces:  Max     0.009209526 RMS     0.001578175

 GradGradGradGradGradGradGradGradGradGradGradGradGradGradGradGradGradGrad
 Berny optimization.
 FormGI is forming the generalized inverse of G from B-inverse, IUseBI=4.
 Internal  Forces:  Max     0.007267985 RMS     0.000948607
 Search for a saddle point.
 Step number   2 out of a maximum of  126
 All quantities printed in internal units (Hartrees-Bohrs-Radians)
 Swapping is turned off.
 Update second derivatives using D2CorX and points    1    2
 ITU=  0  0
     Eigenvalues ---   -0.01048  -0.00279   0.00139   0.00174   0.00210
     Eigenvalues ---    0.00279   0.00505   0.00566   0.00677   0.00795
     Eigenvalues ---    0.01209   0.02350   0.03156   0.03490   0.03643
     Eigenvalues ---    0.04348   0.04376   0.04675   0.04946   0.05160
     Eigenvalues ---    0.05308   0.05858   0.06029   0.06494   0.07200
     Eigenvalues ---    0.08287   0.09486   0.09561   0.09960   0.09980
     Eigenvalues ---    0.10249   0.11424   0.11829   0.13304   0.15878
     Eigenvalues ---    0.17057   0.18037   0.19088   0.21368   0.21904
     Eigenvalues ---    0.24057   0.26455   0.26582   0.27907   0.28009
     Eigenvalues ---    0.29789   0.30009   0.30163   0.30407   0.30681
     Eigenvalues ---    0.30866   0.34483   0.34574   0.38853   0.40521
     Eigenvalues ---    0.53809   0.54057
 Eigenvectors required to have negative eigenvalues:
                          A42       A28       A35       D60       D45
   1                    0.37470  -0.33135  -0.33125   0.31794   0.30769
                          D46       D59       A43       A44       D9
   1                   -0.29375  -0.28007   0.19092   0.18295   0.14397
 RFO step:  Lambda0=2.239774985D-04 Lambda=-2.97430510D-03.
 Linear search not attempted -- option 19 set.
 Iteration  1 RMS(Cart)=  0.04484717 RMS(Int)=  0.03198941
 Iteration  2 RMS(Cart)=  0.02634310 RMS(Int)=  0.00244952
 Iteration  3 RMS(Cart)=  0.00230443 RMS(Int)=  0.00034494
 Iteration  4 RMS(Cart)=  0.00000995 RMS(Int)=  0.00034489
 Iteration  5 RMS(Cart)=  0.00000000 RMS(Int)=  0.00034489
 Variable       Old X    -DE/DX   Delta X   Delta X   Delta X     New X
                                 (Linear)    (Quad)   (Total)
    R1        3.28158   0.00191   0.00000   0.00056   0.00013   3.28171
    R2        3.28355   0.00155   0.00000   0.01188   0.01175   3.29529
    R3        3.31222   0.00177   0.00000   0.02508   0.02530   3.33752
    R4        3.28503  -0.00324   0.00000  -0.01606  -0.01606   3.26897
    R5        3.29702   0.00138   0.00000   0.00435   0.00413   3.30115
    R6        2.62484  -0.00041   0.00000  -0.00437  -0.00418   2.62066
    R7        2.60806  -0.00004   0.00000  -0.00234  -0.00251   2.60555
    R8        2.62421  -0.00010   0.00000  -0.00180  -0.00186   2.62235
    R9        1.80893  -0.00458   0.00000  -0.00540  -0.00540   1.80353
   R10        2.60734  -0.00040   0.00000  -0.00123  -0.00114   2.60620
   R11        2.09894   0.00027   0.00000   0.00042   0.00042   2.09936
   R12        2.08503   0.00041   0.00000   0.00196   0.00196   2.08699
   R13        2.89183   0.00043   0.00000   0.00331   0.00354   2.89536
[...]
 1779299,-0.03785337,0.03832767,0.00081201,-0.15180080,-0.00101960,0.00
 087464,-0.00275534,0.00532845,-0.00223727,-0.00812009,0.01845267,-0.06
 670153,0.47116249,-0.00132742,-0.00163540,0.00064360,0.00866685,-0.008
 95657,0.00882278,0.00020416,0.00023756,-0.00012063,0.00026269,-0.00018
 331,0.00012201,0.00004864,-0.00000872,-0.00001167,0.00085515,-0.000866
 66,0.00199858,0.00141672,-0.00660945,0.00801905,0.00137311,-0.00060461
 ,-0.00048332,0.00017358,0.00018048,0.00004037,-0.09632161,0.06585665,-
 0.06045727,0.09327891,0.00052933,0.00256282,-0.00732899,0.00342193,-0.
 04297018,0.01637348,0.00024302,-0.00038425,0.00042995,0.00075127,-0.00
 312463,0.00001470,-0.00137746,-0.00068413,0.00080531,-0.00011492,0.001
 95085,0.00029408,0.00140763,0.00275785,-0.00110388,-0.00148205,0.00097
 920,0.00028229,-0.00047503,-0.00043191,0.00136584,0.06353274,-0.137213
 18,0.08584183,-0.06956921,0.17550472,-0.00025804,-0.00283558,-0.002282
 28,0.00598297,-0.00909256,0.01074663,-0.00023028,0.00087106,0.00003844
 ,0.00003820,-0.00007590,0.00020742,0.00045577,0.00034033,0.00025546,0.
 00275025,0.00219078,-0.00645754,-0.01628887,0.02355752,-0.01114271,0.0
 0132411,-0.00017327,0.00157259,-0.00011977,-0.00145369,-0.00110633,-0.
 05508878,0.08648518,-0.12716045,0.06167164,-0.09915625,0.13428137,0.00
 018680,0.00144583,-0.00369969,-0.01063623,-0.01641962,-0.00391173,-0.0
 0010506,-0.00022596,0.00030773,0.00001471,-0.00080658,0.00000667,-0.00
 053371,-0.00048786,0.00071128,0.00044898,0.00082411,0.00014932,-0.0092
 3947,0.00120270,0.00144058,0.00111690,0.00026965,0.00125512,0.00114906
 ,0.00064521,0.00039729,-0.28890635,-0.00449961,0.01703173,-0.00697311,
 0.00233229,0.00015815,0.31593007,-0.00631185,0.00275589,-0.00480787,-0
 .03978000,-0.02363304,-0.00246626,0.00083834,0.00013944,-0.00004384,0.
 00100283,-0.00080327,0.00015650,-0.00058256,-0.00135649,0.00144459,0.0
 0058967,0.00052492,0.00050516,0.00386792,0.00068860,-0.00166510,-0.000
 22675,0.00071756,-0.00090069,0.00032990,0.00031079,0.00006715,0.007392
 09,-0.04159229,0.00424195,0.01957792,0.00108404,-0.00071366,0.01383751
 ,0.05950234,0.00098439,0.00042702,-0.00162589,-0.01226207,-0.00643155,
 0.00560545,-0.00026779,0.00000131,0.00020250,-0.00020653,-0.00002669,-
 0.00010625,-0.00033415,-0.00007450,0.00044949,-0.00233977,0.00091020,0
 .00189384,0.03377215,-0.00352935,-0.00316169,0.00363707,-0.00053360,-0
 .00604345,-0.00030135,-0.00018765,0.00145825,0.01116830,0.00208762,-0.
 05662297,-0.01984594,0.00228745,0.00080995,-0.01403621,0.00614643,0.05
 903633,-0.00542312,0.02529808,0.01990967,-0.00016852,-0.00824945,-0.00
 057328,-0.00558798,0.01189384,0.00258797,-0.18215033,0.09076825,-0.041
 19702,0.00177019,-0.00102988,-0.00128858,-0.00099543,-0.00059230,-0.00
 096197,-0.00004100,0.00014213,-0.00000530,0.00008092,-0.00000775,0.000
 01631,-0.00009493,-0.00028523,-0.00030435,0.00163742,0.00151139,0.0007
 8695,-0.00014351,-0.00083923,0.00001256,-0.00030742,-0.00053260,0.0000
 5695,0.55131421,0.01681962,-0.02896207,-0.01839551,-0.00082790,0.00082
 211,0.00018558,0.01883039,-0.01942348,-0.03079087,0.07398732,-0.133343
 93,0.01415390,-0.00308788,0.00228402,0.00332820,0.00055300,0.00046672,
 0.00081674,0.00001114,-0.00030607,0.00019801,-0.00011222,0.00001617,0.
 00001443,0.00009377,0.00022607,0.00016110,-0.00008197,-0.00181152,-0.0
 0020260,-0.00007682,0.00030191,-0.00009567,0.00022188,0.00022758,0.000
 00551,0.02649703,0.56677195,0.00862844,-0.00093827,0.01153361,0.000044
 31,-0.00284798,-0.00024888,0.00365616,-0.01877341,-0.03139582,-0.05151
 781,0.03246960,-0.08936080,0.00417321,-0.00129102,-0.00431115,-0.00072
 870,0.00090336,-0.00062056,-0.00000573,-0.00000223,0.00018284,-0.00003
 571,0.00012269,-0.00004536,-0.00004189,-0.00002319,-0.00006987,0.00038
 954,0.00057897,0.00081658,-0.00003509,-0.00035211,-0.00003615,-0.00010
 442,-0.00012880,-0.00002331,-0.03036181,0.04713138,0.45359620,-0.00159
 932,-0.00102776,-0.00361686,0.00019689,0.00188335,0.00010369,0.0011582
 5,0.00027808,0.00098060,-0.00465989,0.03378047,0.01233969,-0.00095646,
 0.00008717,0.00061519,0.00026892,0.00006061,0.00013693,-0.00004103,0.0
 0002180,-0.00001127,0.00002041,-0.00001379,-0.00000887,-0.00000131,0.0
 0004649,0.00004681,-0.00041826,-0.00023845,-0.00025992,0.00009348,0.00
 017665,0.00002616,-0.00000629,0.00017128,-0.00007336,-0.05336588,-0.02
 911271,-0.01250142,0.05569864,-0.00158830,0.00386835,0.00623911,0.0001
 7812,-0.00265837,0.00018437,-0.00017528,0.00197643,-0.00060466,0.01703
 357,-0.02702288,-0.00566779,0.00178782,-0.00026674,-0.00095162,0.00013
 456,-0.00057336,-0.00039077,-0.00017116,0.00039337,-0.00004583,0.00016
 820,-0.00009348,-0.00000068,-0.00007411,-0.00013195,-0.00010215,0.0003
 8766,0.00052500,0.00034422,0.00012632,-0.00045920,0.00008795,-0.000149
 08,0.00003766,-0.00008540,-0.02658038,-0.21405389,-0.08626598,0.013620
 69,0.25045395,-0.00135946,0.00124560,-0.00314252,0.00008816,0.00023915
 ,0.00022719,0.00236621,-0.00180459,-0.00661848,-0.00037796,0.01344768,
 0.00826728,0.00044305,-0.00004172,0.00032911,0.00020899,-0.00074079,0.
 00018411,-0.00003260,0.00030823,-0.00011418,0.00008425,-0.00008898,0.0
 0002237,-0.00003096,-0.00007712,-0.00000485,-0.00004391,0.00007694,-0.
 00005758,0.00002517,-0.00001646,0.00006281,-0.00002182,0.00001350,-0.0
 0001692,-0.00810352,-0.08374525,-0.09236320,0.01003763,0.09521580,0.09
 594945,-0.00211672,-0.00399134,-0.00384575,-0.00001562,0.00119605,-0.0
 0011372,0.00078292,-0.00080417,0.00052702,-0.03860218,0.00607954,-0.00
 117957,-0.00145863,0.00086023,0.00125423,0.00017255,0.00031095,0.00016
 570,0.00002317,-0.00018154,0.00003726,-0.00003984,0.00001671,-0.000011
 11,0.00004442,0.00008880,0.00005438,-0.00023168,-0.00040641,-0.0001307
 7,-0.00000286,0.00012215,-0.00003225,0.00010072,0.00004556,0.00003430,
 -0.22224101,-0.09367591,0.05245700,0.00313573,-0.00140547,-0.00026084,
 0.25995540,0.00447695,0.00396075,0.00121890,-0.00082409,-0.00038005,-0
 .00004483,-0.00092910,-0.00030772,0.00015072,0.02999899,0.00457700,-0.
 00302146,0.00087105,-0.00090659,-0.00087896,-0.00062794,-0.00020665,0.
 00014667,0.00017909,-0.00010791,-0.00009199,-0.00010516,0.00005382,0.0
 0002964,0.00002321,-0.00005439,0.00000002,0.00016544,0.00006522,0.0000
 2329,-0.00015197,0.00002910,-0.00003871,0.00018542,-0.00033279,0.00017
 554,-0.10620385,-0.09974349,0.02556550,-0.01990325,-0.01169812,0.00506
 905,0.09615293,0.10484718,0.00081576,0.00029010,-0.00085686,-0.0002560
 0,-0.00020788,-0.00020850,-0.00113032,-0.00171194,0.00210853,-0.013099
 23,-0.00205211,0.00762211,-0.00034085,-0.00004359,0.00046190,-0.000194
 41,-0.00017534,0.00012539,0.00009521,-0.00005537,-0.00006033,-0.000044
 03,0.00000378,0.00002426,0.00001886,-0.00002032,-0.00000455,0.00013919
 ,0.00006909,-0.00002505,-0.00010610,0.00002701,-0.00003176,0.00008804,
 -0.00017974,0.00011357,0.04674947,0.02312089,-0.06733186,-0.01266638,-
 0.00922292,0.00357457,-0.04901215,-0.03291310,0.07212802,-0.00677650,0
 .01659321,-0.01033564,-0.00044040,0.00023252,0.00055767,-0.09783179,0.
 06314272,0.01191201,-0.01132558,0.02226756,-0.03110483,-0.00022984,-0.
 00213698,0.00071722,0.00122988,-0.00211948,0.00001838,0.00059257,0.000
 94145,-0.00032945,0.00021907,-0.00036992,0.00014182,-0.00011835,-0.000
 16816,-0.00004348,0.00000971,0.00021271,-0.00000658,-0.00002867,-0.000
 05299,0.00009720,-0.00001034,-0.00012097,0.00006996,-0.07436934,-0.009
 49382,0.02611074,-0.00011312,-0.00334981,-0.00279740,-0.00162627,-0.00
 234800,0.02791829,0.55718435,0.02124824,-0.03202738,0.02654052,-0.0001
 1086,0.00010270,-0.00150330,0.06109432,-0.21874466,-0.03772360,0.01280
 420,-0.01849829,0.01173857,-0.00688441,0.00053071,-0.00390082,-0.00120
 709,0.00334178,0.00001362,0.00094824,-0.00211748,0.00051518,-0.0006275
 8,0.00043370,-0.00007369,0.00026114,0.00060177,0.00005330,0.00005341,-
 0.00037711,0.00005701,-0.00020741,0.00035011,-0.00038072,0.00025350,-0
 .00015435,0.00013606,-0.01348554,-0.06795254,0.00552016,0.00209056,0.0
 0009897,-0.03096040,-0.00215072,-0.00061443,0.01963411,-0.01393660,0.5
 1715294,-0.00229909,0.00574847,0.01117937,0.00041071,-0.00073946,-0.00
 059111,0.02707145,-0.06267644,-0.10013720,-0.01995865,0.01169802,-0.03
 172210,-0.00133050,0.00013383,-0.00229076,-0.00117084,0.00459646,-0.00
 036662,-0.00022849,-0.00037069,0.00128025,-0.00020371,0.00034336,-0.00
 012981,0.00003289,0.00036942,-0.00008107,0.00008082,-0.00010236,0.0002
 4514,-0.00000161,-0.00000212,-0.00007500,-0.00002760,0.00006692,-0.000
 06711,0.01405489,0.01902829,-0.16309515,0.00485600,0.00347716,-0.00712
 445,0.00085645,0.00214611,-0.01039843,0.03415796,-0.03663676,0.4633883
 1,-0.00149999,0.00224250,-0.00113470,0.00013253,-0.00027402,0.00009780
 ,0.01759650,0.00719319,-0.00507116,0.00229658,-0.00092821,0.00077530,0
 .00124036,-0.00017484,0.00026618,0.00009944,-0.00032575,-0.00002642,-0
 .00013896,0.00025718,-0.00004284,0.00010042,-0.00004412,0.00000065,-0.
 00002851,-0.00006066,-0.00002098,0.00000400,0.00012297,0.00002132,0.00
 005617,-0.00008193,0.00004918,-0.00005469,0.00005716,-0.00004005,-0.00
 552661,-0.00295432,0.00020433,0.00048590,0.00129532,0.00106848,0.00121
 609,0.00077371,0.00196920,-0.14328288,-0.09046459,0.03278295,0.1483294
 9,-0.00748878,0.00268747,-0.00841915,0.00026354,-0.00009950,0.00043455
 ,-0.00302811,-0.05086103,0.00082185,0.00129507,0.00129644,0.00113835,0
 .00211089,0.00081924,0.00013331,0.00130199,-0.00289164,0.00033736,0.00
 010517,0.00087761,-0.00049336,0.00032574,-0.00041092,0.00010742,-0.000
 08927,-0.00023293,-0.00003464,0.00000822,0.00015440,-0.00012057,0.0000
 8455,-0.00014300,0.00014538,-0.00008776,0.00007796,-0.00003695,-0.0042
 7612,-0.00187328,-0.00105952,0.00034620,0.00212060,0.00071067,0.000110
 39,0.00118848,0.00112290,-0.09211798,-0.13357732,0.04024030,0.10317952
 ,0.17684083,-0.00009689,0.00006225,-0.00121987,-0.00010926,0.00008975,
 0.00006934,-0.00553891,-0.01083661,0.00844569,-0.00211190,-0.00124563,
 0.00205551,-0.00025922,-0.00015242,0.00018885,0.00000925,-0.00024711,0
 .00010156,0.00009197,-0.00000319,-0.00006307,-0.00000863,-0.00002076,0
 .00001943,0.00000648,-0.00000521,0.00000816,0.00000999,-0.00006387,-0.
 00003267,-0.00002043,0.00002222,-0.00000632,0.00001955,-0.00003606,0.0
 0002469,0.02742647,0.02174417,-0.00953089,-0.00022239,-0.00069014,0.00
 140572,-0.00018542,0.00029388,-0.00682184,0.03010962,0.03552246,-0.064
 40439,-0.03849232,-0.03646872,0.06508901,0.00032742,-0.00443196,0.0049
 0180,0.00016038,0.00057922,-0.00025194,-0.00969853,0.02116888,-0.00086
 357,0.00181193,-0.00019950,-0.00021053,-0.00130016,0.00050091,-0.00068
 089,-0.00012142,0.00155833,-0.00016589,0.00004687,-0.00053270,0.000276
 42,-0.00013486,0.00014305,-0.00003478,0.00008336,0.00022916,0.00004362
 ,-0.00009944,-0.00027489,-0.00002445,-0.00003171,0.00012219,-0.0000878
 8,0.00006408,0.00005336,0.00001261,0.00113649,-0.00249272,0.00251250,-
 0.00013113,0.00037546,-0.00103259,0.00129859,0.00015710,-0.00033457,-0
 .22044312,0.02741495,-0.08916312,-0.02113696,-0.00128085,-0.01051361,0
 .24716818,0.00059775,0.00260681,-0.00572422,-0.00022165,-0.00018842,0.
 00027900,0.03575170,-0.02409372,0.01164800,0.00044170,0.00102972,0.001
 13468,0.00199810,-0.00010090,0.00090124,0.00002135,-0.00173891,0.00026
 374,-0.00005780,0.00035243,-0.00036609,0.00009459,-0.00012261,0.000045
 92,-0.00004701,-0.00020807,-0.00000255,0.00008569,0.00016713,-0.000033
 34,-0.00001840,-0.00005709,0.00005629,-0.00000896,-0.00008582,0.000028
 68,0.00197938,0.00092447,0.00280317,0.00024339,-0.00016986,0.00102126,
 0.00006600,0.00018504,0.00026165,0.02202275,-0.04927936,0.01455220,-0.
 01917405,0.00462887,-0.00869936,-0.04324184,0.06597985,0.00029456,-0.0
 0254234,-0.00288137,0.00010446,0.00082651,0.00014250,0.01206758,-0.004
 89254,0.00922225,-0.00155413,0.00389313,-0.00718738,-0.00059660,0.0002
 8415,0.00052915,0.00005145,0.00006474,0.00015394,-0.00000456,-0.000078
 04,-0.00002579,-0.00002574,0.00001571,-0.00000586,0.00002446,0.0000374
 8,0.00005578,-0.00016670,-0.00026965,-0.00006987,0.00000664,0.00009930
 ,-0.00001228,0.00003622,0.00006725,-0.00000183,-0.02908414,0.00571919,
 -0.00701363,0.00058034,-0.00137464,-0.00105091,0.00019991,0.00027323,0
 .00125486,-0.08572461,0.01586827,-0.09422183,0.00723876,0.00002009,0.0
 0419047,0.09554296,-0.01793596,0.09662891,0.03674906,0.01359303,-0.004
 27791,-0.00944228,0.00638318,-0.00545164,-0.00406099,-0.01186935,0.008
 25398,-0.00048655,-0.00758656,-0.00230693,-0.00189188,-0.00102432,0.00
 017850,-0.00809481,0.00478571,0.00526702,0.00094156,-0.00473689,0.0006
 8090,-0.00068567,0.00101175,-0.00011200,0.00056656,0.00110795,0.000662
 82,-0.00159522,-0.00264410,-0.00209583,-0.00150085,0.00118743,-0.00067
 206,-0.00242732,0.00032507,0.00024545,-0.00361094,0.00223119,-0.001042
 20,0.00009848,-0.00094915,-0.00041298,-0.00111744,-0.00125516,-0.00083
 666,-0.00329193,0.00569031,0.00110755,0.00029913,-0.00149077,-0.000189
 84,0.00134445,-0.00109849,0.00083751,0.00093937,0.01297117,-0.02038995
 ,-0.00044010,0.00203492,0.00738150,-0.00015018,-0.00818283,-0.00120169
 ,0.00525237,-0.00590449,0.00242286,-0.00119090,-0.00151035,0.00276557,
 -0.00014343,0.00326726,0.00497229,-0.00113279,-0.00171713,-0.00075192,
 0.00143341,0.00068381,0.00016375,-0.00057098,-0.00019185,0.00076398,0.
 00027010,-0.00251763,-0.00673472,0.00137801,0.00285204,-0.00005483,0.0
 0031024,0.00206422,0.00113571,-0.00216248,0.00390557,-0.00403412,-0.00
 234037,-0.00273206,-0.00223527,-0.00002455,-0.00291369,-0.00122153,0.0
 0286790,0.00134520,0.00237644,-0.00143015,-0.00072292,-0.00060580,0.00
 047752,0.00026216,0.00065665,-0.00032779,-0.00270408,0.01996134,-0.008
 49877,-0.00193454,-0.01063857,-0.00312353,0.00142858,0.00210718,0.0041
 9193,0.00527642,-0.00120023,-0.00119513,-0.00107324,0.00207270,0.00037
 762,0.00000947,0.00106891,0.00482860,-0.00213407,0.00016730,-0.0016643
 0,0.00234648,-0.00150544,0.00027832,-0.00046773,0.00051920,-0.00015443
 ,0.00007156,0.00023190,-0.00146147,0.00075858,-0.00008133,-0.00023158,
 0.00011136,0.00023514,0.00034100,-0.00137488,-0.00159388,-0.00010483,-
 0.00147031,-0.00044688,-0.00032591,-0.00029351,0.00038473,-0.00041434,
 0.00155249,-0.00114953,-0.00023862,-0.00335239,-0.00131510,0.00016231,
 0.00084269,0.00049447,-0.00007845,-0.00016188,0.00028424,-0.01474498,-
 0.03260035,0.54621884,-0.00715274,-0.00190770,-0.00660351,-0.00119331,
 0.00056190,0.00084764,0.00080336,0.00278792,0.00028273,-0.00058510,-0.
 00030677,0.00081453,0.00047873,0.00010230,0.00048000,0.00243803,-0.001
 46049,0.00046475,-0.00054369,0.00213361,-0.00077716,0.00030210,-0.0004
 5380,0.00018373,-0.00014921,-0.00033826,-0.00004349,-0.00060610,0.0003
 0493,-0.00045495,-0.00004796,-0.00003813,0.00017699,0.00010148,-0.0004
 6473,-0.00032279,0.00004124,-0.00023831,-0.00042086,-0.00006414,0.0000
 4368,0.00018521,-0.00026717,0.00003851,0.00006604,0.00120046,-0.002666
 70,-0.00048207,-0.00004884,0.00071181,0.00002711,-0.00050151,0.0004516
 4,-0.00017300,-0.00295199,-0.00130505,0.02184845,0.00871131,-0.0022862
 7,0.00492601,-0.00145170,-0.00039301,-0.00060703,-0.00023049,0.0023547
 8,0.00038531,0.00066914,0.00038060,-0.00062754,0.00071363,0.00038605,-
 0.00058370,0.00015752,-0.00143821,-0.00115955,-0.00047395,0.00113366,-
 0.00040236,0.00040366,-0.00019659,0.00001585,-0.00012050,0.00000926,-0
 .00028512,-0.00013048,0.00098076,-0.00040026,-0.00003965,-0.00001873,-
 0.00007017,-0.00008638,-0.00067892,0.00059618,0.00080615,-0.00070775,-
 0.00087321,-0.00035379,0.00005740,0.00000128,0.00020040,0.00025760,0.0
 0080661,-0.00092011,-0.00105683,-0.00239107,-0.00041538,0.00030728,0.0
 0041291,0.00008873,-0.00001305,-0.00029962,0.00020654,-0.00092689,-0.0
 0527404,0.03236725,0.00199157,0.00585104,-0.00176176,0.00001647,-0.002
 72940,-0.00050544,0.00034298,0.00074252,0.00272623,0.00222791,-0.00071
 884,-0.00002829,-0.00034935,0.00062955,0.00004806,-0.00007326,0.000279
 07,0.00141449,-0.00050743,0.00006667,-0.00039719,0.00049199,-0.0004545
 1,0.00004040,-0.00005255,0.00014310,-0.00001719,0.00006049,0.00009735,
 0.00010441,-0.00026088,-0.00032218,-0.00005706,0.00001341,0.00007049,-
 0.00012575,-0.00033963,-0.00031307,-0.00004103,0.00000930,-0.00033427,
 -0.00003415,-0.00003821,0.00009621,-0.00024330,0.00023480,-0.00037713,
 -0.00014680,-0.00081972,-0.00036107,0.00003841,0.00007985,0.00012153,-
 0.00004333,-0.00016466,0.00013613,0.01505489,0.03042561,-0.53573073,-0
 .01607737,-0.03132960,0.53899284,-0.00780121,-0.02665095,-0.01683438,-
 0.00095652,0.00118767,0.00104519,-0.00068453,0.00188258,0.00132748,0.0
 0492763,-0.00021219,0.00025506,-0.03371436,-0.04057567,-0.02531193,-0.
 00294058,-0.00360310,-0.00081337,-0.00050955,0.00070496,-0.00065139,0.
 00004155,-0.00011493,0.00006579,-0.00001483,-0.00048468,0.00010448,-0.
 00010234,-0.00033473,-0.00026743,-0.00005176,0.00020433,0.00003474,0.0
 0008720,-0.00006915,0.00004882,-0.00195444,0.00290926,-0.00138059,0.00
 020014,-0.00070866,-0.00003312,0.00098983,-0.00067389,0.00016066,-0.00
 054792,-0.00011736,-0.00054597,-0.00013918,0.00001655,0.00004837,0.000
 15711,0.00011416,0.00034462,0.00021928,0.00101571,0.00020812,0.0000350
 6,-0.00014273,0.00005176,0.04275941,-0.00482849,-0.00650624,-0.0088687
 2,0.00046451,0.00112470,0.00125099,0.00096456,-0.00090344,0.00035142,0
 .00394015,-0.00433303,-0.00108419,-0.06575188,-0.33390852,-0.25308658,
 -0.00207612,-0.00109329,-0.00010723,-0.00015653,0.00124416,-0.00052731
 ,0.00022273,-0.00002746,0.00009905,0.00001432,-0.00020265,0.00006633,0
 .00008459,-0.00057345,-0.00036930,-0.00000825,0.00007197,0.00005765,0.
 00008201,0.00015938,0.00005620,0.00079441,0.00033660,-0.00071816,0.000
 16389,-0.00011248,-0.00004841,0.00022232,-0.00013954,0.00010499,0.0005
 1345,0.00074486,-0.00002719,-0.00022342,-0.00040941,0.00016810,-0.0000
 9726,-0.00018658,0.00004537,-0.00002985,-0.00009621,0.00009801,0.00005
 206,-0.00002152,0.00003247,0.06565281,0.34483214,0.00152933,-0.0025121
 6,0.00308675,0.00084401,0.00014550,-0.00156167,0.00072831,0.00093991,-
 0.00042170,0.00218503,-0.00003956,-0.00386131,-0.04614138,-0.26023574,
 -0.20655766,-0.00014995,-0.00056528,0.00101680,-0.00055992,0.00014363,
 -0.00018314,0.00013392,-0.00007970,-0.00003721,0.00000576,-0.00011634,
 0.00001833,-0.00008699,0.00011560,-0.00002112,0.00002084,-0.00000843,0
 .00003052,-0.00001544,-0.00005289,-0.00001770,0.00042460,-0.00091647,0
 .00009856,-0.00000250,0.00018569,-0.00001047,-0.00015702,0.00010921,-0
 .00014736,-0.00108346,-0.00024786,0.00028812,0.00015361,0.00049818,-0.
 00013538,0.00019571,0.00009225,-0.00012749,-0.00014558,0.00009891,-0.0
 0012291,-0.00002198,-0.00006096,-0.00003426,0.04214309,0.26250652,0.20
 870029\\0.00002172,-0.00004662,0.00003850,-0.00002301,0.00000775,0.000
 00310,0.00000023,-0.00000281,0.00001653,-0.00000304,0.00002242,-0.0000
 2905,0.00000878,-0.00000624,-0.00001344,-0.00001211,0.00003233,-0.0000
 2735,-0.00000117,-0.00000264,-0.00000839,-0.00000530,-0.00000438,-0.00
 000412,-0.00000740,0.00000380,-0.00000465,0.00000508,0.00001352,-0.000
 00757,0.00000123,0.00000123,-0.00000280,-0.00000209,0.00000007,0.00000
 652,0.00001296,0.00000418,-0.00000181,0.00000758,0.00000191,-0.0000005
 1,-0.00000246,0.00000046,0.00000548,0.00000145,-0.00000441,0.00000740,
 0.00000167,-0.00000212,0.00000058,0.00000183,0.00000061,0.00000572,0.0
 0000104,-0.00001049,0.00000980,0.00000202,0.00000249,0.00000511,-0.000
 00902,-0.00001105,0.00000097\\\@
 The archive entry for this job was punched.


 IF I HAVE SEEN FARTHER, IT IS BY STANDING ON THE
 SHOULDERS OF GIANTS. -- SIR ISAAC NEWTON
 Job cpu time:       0 days  5 hours 33 minutes 47.0 seconds.
 Elapsed time:       0 days  1 hours 23 minutes 27.5 seconds.
 File lengths (MBytes):  RWF=    424 Int=      0 D2E=      0 Chk=     20 Scr=      1
 Normal termination of Gaussian 16 at Thu Mar 21 08:19:57 2024.
