 Entering Gaussian System, Link 0=/opt/software/gaussian/g16.c01/g16
 Initial command:
 /opt/software/gaussian/g16.c01/l1.exe "/scratch/arhender/24149065/Gau-7457.inp" -scrdir="/scratch/arhender/24149065/"
 Entering Link 1 = /opt/software/gaussian/g16.c01/l1.exe PID=      7458.
  
 Copyright (c) 1988-2019, Gaussian, Inc.  All Rights Reserved.
  
 This is part of the Gaussian(R) 16 program.  It is based on
 the Gaussian(R) 09 system (copyright 2009, Gaussian, Inc.),
 the Gaussian(R) 03 system (copyright 2003, Gaussian, Inc.),
 the Gaussian(R) 98 system (copyright 1998, Gaussian, Inc.),
 the Gaussian(R) 94 system (copyright 1995, Gaussian, Inc.),
 the Gaussian 92(TM) system (copyright 1992, Gaussian, Inc.),
 the Gaussian 90(TM) system (copyright 1990, Gaussian, Inc.),
 the Gaussian 88(TM) system (copyright 1988, Gaussian, Inc.),
 the Gaussian 86(TM) system (copyright 1986, Carnegie Mellon
 University), and the Gaussian 82(TM) system (copyright 1983,
 Carnegie Mellon University). Gaussian is a federally registered
 trademark of Gaussian, Inc.
  
 This software contains proprietary and confidential information,
 including trade secrets, belonging to Gaussian, Inc.
  
 This software is provided under written license and may be
 used, copied, transmitted, or stored only in accord with that
 written license.
  
 The following legend is applicable only to US Government
 contracts under FAR:
  
                    RESTRICTED RIGHTS LEGEND
  
 Use, reproduction and disclosure by the US Government is
 subject to restrictions as set forth in subparagraphs (a)
 and (c) of the Commercial Computer Software - Restricted
 Rights clause in FAR 52.227-19.
  
 Gaussian, Inc.
 340 Quinnipiac St., Bldg. 40, Wallingford CT 06492
  
  
 ---------------------------------------------------------------
 Warning -- This program may not be used in any manner that
 competes with the business of Gaussian, Inc. or will provide
 assistance to any competitor of Gaussian, Inc.  The licensee
 of this program is prohibited from giving any competitor of
 Gaussian, Inc. access to this program.  By using this program,
 the user acknowledges that Gaussian, Inc. is engaged in the
 business of creating and licensing software in the field of
 computational chemistry and represents and warrants to the
 licensee that it is not a competitor of Gaussian, Inc. and that
 it will not use this program in any manner prohibited above.
 ---------------------------------------------------------------
  

 Cite this work as:
 Gaussian 16, Revision C.01,
 M. J. Frisch, G. W. Trucks, H. B. Schlegel, G. E. Scuseria, 
 M. A. Robb, J. R. Cheeseman, G. Scalmani, V. Barone, 
 G. A. Petersson, H. Nakatsuji, X. Li, M. Caricato, A. V. Marenich, 
 J. Bloino, B. G. Janesko, R. Gomperts, B. Mennucci, H. P. Hratchian, 
 J. V. Ortiz, A. F. Izmaylov, J. L. Sonnenberg, D. Williams-Young, 
 F. Ding, F. Lipparini, F. Egidi, J. Goings, B. Peng, A. Petrone, 
 T. Henderson, D. Ranasinghe, V. G. Zakrzewski, J. Gao, N. Rega, 
 G. Zheng, W. Liang, M. Hada, M. Ehara, K. Toyota, R. Fukuda, 
 J. Hasegawa, M. Ishida, T. Nakajima, Y. Honda, O. Kitao, H. Nakai, 
 T. Vreven, K. Throssell, J. A. Montgomery, Jr., J. E. Peralta, 
 F. Ogliaro, M. J. Bearpark, J. J. Heyd, E. N. Brothers, K. N. Kudin, 
 V. N. Staroverov, T. A. Keith, R. Kobayashi, J. Normand, 
 K. Raghavachari, A. P. Rendell, J. C. Burant, S. S. Iyengar, 
 J. Tomasi, M. Cossi, J. M. Millam, M. Klene, C. Adamo, R. Cammi, 
 J. W. Ochterski, R. L. Martin, K. Morokuma, O. Farkas, 
 J. B. Foresman, and D. J. Fox, Gaussian, Inc., Wallingford CT, 2019.
 
 ******************************************
 Gaussian 16:  ES64L-G16RevC.01  3-Jul-2019
                 1-Feb-2024 
 ******************************************
 %chk=PL3HL3_TSOptConversion_Unfreeze.chk
 %mem=1600MB
 %nprocs=4
 Will use up to    4 processors via shared memory.
 ------------------------------------------------------------------
 # opt=(calcall,ts,noeigen) freq wb97xd/def2tzvpp geom=connectivity
 ------------------------------------------------------------------
 1/5=1,10=4,11=1,18=20,26=3,38=1,57=2/1,3;
 2/9=110,12=2,17=6,18=5,40=1/2;
 3/5=44,7=202,11=2,25=1,30=1,71=2,74=-58,140=1/1,2,3;
 4//1;
 5/5=2,38=5/2;
 8/6=4,10=90,11=11/1;
 11/6=1,8=1,9=11,15=111,16=1/1,2,10;
 10/6=1/2;
 6/7=2,8=2,9=2,10=2,18=1,28=1/1;
 7/10=1,25=1/1,2,3,16;
 1/5=1,10=4,11=1,18=20,26=3/3(3);
 2/9=110/2;
 7/8=1,9=1,25=1,44=-1/16;
 99//99;
 2/9=110/2;
 3/5=44,7=202,11=2,25=1,30=1,71=2,74=-58,140=1/1,2,3;
 4/5=5,16=3,69=1/1;
 5/5=2,38=5/2;
 8/6=4,10=90,11=11/1;
 11/6=1,8=1,9=11,15=111,16=1/1,2,10;
 10/6=1/2;
 7/10=1,25=1/1,2,3,16;
 1/5=1,10=4,11=1,18=20,26=3/3(-8);
 2/9=110/2;
 6/7=2,8=2,9=2,10=2,18=1,19=2,28=1/1;
 7/8=1,9=1,25=1,44=-1/16;
 99//99;
 ----------------------------------------------------------------------
 Modify TS discovered for PmonoL1 to HBiL3 into potential PL3 to HL3 TS
  opt Unfreeze Result of previous job and optimize to a TS
 ----------------------------------------------------------------------
 Symbolic Z-matrix:
 Charge = -2 Multiplicity = 1
 Si                   -0.19915  -0.16538  -0.04419 
 O                     0.94103  -0.88199  -1.1774 
 O                    -1.27846   0.55275   1.1568 
 O                    -1.60255  -0.73436  -0.9293 
 O                    -0.04665   1.43024  -0.94886 
 O                     1.68924   0.86918   1.08587 
 O                     0.1294   -1.47998   1.05408 
 C                     1.74237   2.09426   0.51216 
 H                     2.78476   2.51882   0.43279 
 H                     1.15738   2.87395   1.07526 
 C                     1.16792   2.06347  -0.91832 
 H                     1.90528   1.54941  -1.56766 
 H                     1.05992   3.10099  -1.29921 
 C                     1.33729  -2.09538   0.78467 
 H                     2.16228  -1.54714   1.26208 
 H                     1.33434  -3.13627   1.15502 
 C                     1.51038  -2.05358  -0.73913 
 H                     2.57909  -2.10676  -1.01582 
 H                     1.01162  -2.93625  -1.19394 
 C                    -2.79963  -0.37454  -0.34578 
 H                    -3.55042  -0.10135  -1.11044 
 H                    -3.22414  -1.2125    0.24391 
 C                    -2.50732   0.80425   0.59417 
 H                    -2.50572   1.74303   0.00912 
 H                    -3.2885    0.89186   1.37137 
 

 GradGradGradGradGradGradGradGradGradGradGradGradGradGradGradGradGradGrad
 Berny optimization.
 Initialization pass.
                           ----------------------------
                           !    Initial Parameters    !
                           ! (Angstroms and Degrees)  !
 --------------------------                            --------------------------
 ! Name  Definition              Value          Derivative Info.                !
 --------------------------------------------------------------------------------
 ! R1    R(1,2)                  1.76           calculate D2E/DX2 analytically  !
 ! R2    R(1,3)                  1.7672         calculate D2E/DX2 analytically  !
 ! R3    R(1,4)                  1.7541         calculate D2E/DX2 analytically  !
 ! R4    R(1,5)                  1.8406         calculate D2E/DX2 analytically  !
 ! R5    R(1,7)                  1.7442         calculate D2E/DX2 analytically  !
 ! R6    R(2,17)                 1.3744         calculate D2E/DX2 analytically  !
 ! R7    R(3,23)                 1.3747         calculate D2E/DX2 analytically  !
 ! R8    R(4,20)                 1.3795         calculate D2E/DX2 analytically  !
 ! R9    R(5,11)                 1.3701         calculate D2E/DX2 analytically  !
 ! R10   R(6,8)                  1.3538         calculate D2E/DX2 analytically  !
 ! R11   R(7,14)                 1.3821         calculate D2E/DX2 analytically  !
 ! R12   R(8,9)                  1.1283         calculate D2E/DX2 analytically  !
 ! R13   R(8,10)                 1.1257         calculate D2E/DX2 analytically  !
 ! R14   R(8,11)                 1.5418         calculate D2E/DX2 analytically  !
 ! R15   R(11,12)                1.1089         calculate D2E/DX2 analytically  !
 ! R16   R(11,13)                1.1105         calculate D2E/DX2 analytically  !
 ! R17   R(14,15)                1.0996         calculate D2E/DX2 analytically  !
 ! R18   R(14,16)                1.1048         calculate D2E/DX2 analytically  !
 ! R19   R(14,17)                1.5342         calculate D2E/DX2 analytically  !
 ! R20   R(17,18)                1.1052         calculate D2E/DX2 analytically  !
 ! R21   R(17,19)                1.1112         calculate D2E/DX2 analytically  !
 ! R22   R(20,21)                1.1059         calculate D2E/DX2 analytically  !
 ! R23   R(20,22)                1.1091         calculate D2E/DX2 analytically  !
 ! R24   R(20,23)                1.5357         calculate D2E/DX2 analytically  !
 ! R25   R(23,24)                1.1062         calculate D2E/DX2 analytically  !
 ! R26   R(23,25)                1.1054         calculate D2E/DX2 analytically  !
 ! A1    A(2,1,4)               93.5166         calculate D2E/DX2 analytically  !
 ! A2    A(2,1,5)               89.0161         calculate D2E/DX2 analytically  !
 ! A3    A(2,1,7)               88.6546         calculate D2E/DX2 analytically  !
 ! A4    A(3,1,4)               89.2033         calculate D2E/DX2 analytically  !
 ! A5    A(3,1,5)               91.8538         calculate D2E/DX2 analytically  !
 ! A6    A(3,1,7)               89.6219         calculate D2E/DX2 analytically  !
 ! A7    A(4,1,5)               95.7087         calculate D2E/DX2 analytically  !
 ! A8    A(4,1,7)              102.9418         calculate D2E/DX2 analytically  !
 ! A9    A(5,1,7)              161.3107         calculate D2E/DX2 analytically  !
 ! A10   A(1,2,17)             114.213          calculate D2E/DX2 analytically  !
 ! A11   A(1,3,23)             110.0077         calculate D2E/DX2 analytically  !
 ! A12   A(1,4,20)             113.3433         calculate D2E/DX2 analytically  !
 ! A13   A(1,5,11)             117.592          calculate D2E/DX2 analytically  !
 ! A14   A(1,7,14)             112.177          calculate D2E/DX2 analytically  !
 ! A15   A(6,8,9)              113.9893         calculate D2E/DX2 analytically  !
 ! A16   A(6,8,10)             113.2274         calculate D2E/DX2 analytically  !
 ! A17   A(6,8,11)             111.1301         calculate D2E/DX2 analytically  !
 ! A18   A(9,8,10)             104.7527         calculate D2E/DX2 analytically  !
 ! A19   A(9,8,11)             106.6459         calculate D2E/DX2 analytically  !
 ! A20   A(10,8,11)            106.5179         calculate D2E/DX2 analytically  !
 ! A21   A(5,11,8)             111.1125         calculate D2E/DX2 analytically  !
 ! A22   A(5,11,12)            111.2338         calculate D2E/DX2 analytically  !
 ! A23   A(5,11,13)            109.7527         calculate D2E/DX2 analytically  !
 ! A24   A(8,11,12)            107.7459         calculate D2E/DX2 analytically  !
 ! A25   A(8,11,13)            109.621          calculate D2E/DX2 analytically  !
 ! A26   A(12,11,13)           107.2747         calculate D2E/DX2 analytically  !
 ! A27   A(7,14,15)            110.4297         calculate D2E/DX2 analytically  !
 ! A28   A(7,14,16)            110.5989         calculate D2E/DX2 analytically  !
 ! A29   A(7,14,17)            106.2644         calculate D2E/DX2 analytically  !
 ! A30   A(15,14,16)           109.0386         calculate D2E/DX2 analytically  !
 ! A31   A(15,14,17)           109.4508         calculate D2E/DX2 analytically  !
 ! A32   A(16,14,17)           111.0337         calculate D2E/DX2 analytically  !
 ! A33   A(2,17,14)            107.0511         calculate D2E/DX2 analytically  !
 ! A34   A(2,17,18)            111.2084         calculate D2E/DX2 analytically  !
 ! A35   A(2,17,19)            111.1424         calculate D2E/DX2 analytically  !
 ! A36   A(14,17,18)           110.882          calculate D2E/DX2 analytically  !
 ! A37   A(14,17,19)           109.5272         calculate D2E/DX2 analytically  !
 ! A38   A(18,17,19)           107.0575         calculate D2E/DX2 analytically  !
 ! A39   A(4,20,21)            111.1666         calculate D2E/DX2 analytically  !
 ! A40   A(4,20,22)            111.0985         calculate D2E/DX2 analytically  !
 ! A41   A(4,20,23)            107.0938         calculate D2E/DX2 analytically  !
 ! A42   A(21,20,22)           107.1223         calculate D2E/DX2 analytically  !
 ! A43   A(21,20,23)           111.2724         calculate D2E/DX2 analytically  !
 ! A44   A(22,20,23)           109.1084         calculate D2E/DX2 analytically  !
 ! A45   A(3,23,20)            106.2727         calculate D2E/DX2 analytically  !
 ! A46   A(3,23,24)            111.7419         calculate D2E/DX2 analytically  !
 ! A47   A(3,23,25)            111.0049         calculate D2E/DX2 analytically  !
 ! A48   A(20,23,24)           109.1465         calculate D2E/DX2 analytically  !
 ! A49   A(20,23,25)           110.8944         calculate D2E/DX2 analytically  !
 ! A50   A(24,23,25)           107.7955         calculate D2E/DX2 analytically  !
 ! A51   L(2,1,3,4,-1)         182.7199         calculate D2E/DX2 analytically  !
 ! A52   L(2,1,3,4,-2)         178.8551         calculate D2E/DX2 analytically  !
 ! D1    D(4,1,2,17)          -102.0919         calculate D2E/DX2 analytically  !
 ! D2    D(5,1,2,17)           162.2486         calculate D2E/DX2 analytically  !
 ! D3    D(7,1,2,17)             0.7935         calculate D2E/DX2 analytically  !
 ! D4    D(4,1,3,23)           -24.1071         calculate D2E/DX2 analytically  !
 ! D5    D(5,1,3,23)            71.5792         calculate D2E/DX2 analytically  !
 ! D6    D(7,1,3,23)          -127.0558         calculate D2E/DX2 analytically  !
 ! D7    D(2,1,4,20)           179.7436         calculate D2E/DX2 analytically  !
 ! D8    D(3,1,4,20)             0.8885         calculate D2E/DX2 analytically  !
 ! D9    D(5,1,4,20)           -90.895          calculate D2E/DX2 analytically  !
 ! D10   D(7,1,4,20)            90.3174         calculate D2E/DX2 analytically  !
 ! D11   D(2,1,5,11)           -65.7607         calculate D2E/DX2 analytically  !
 ! D12   D(3,1,5,11)           111.4189         calculate D2E/DX2 analytically  !
 ! D13   D(4,1,5,11)          -159.1968         calculate D2E/DX2 analytically  !
 ! D14   D(7,1,5,11)            17.1133         calculate D2E/DX2 analytically  !
 ! D15   D(2,1,7,14)            21.0356         calculate D2E/DX2 analytically  !
 ! D16   D(3,1,7,14)          -156.5691         calculate D2E/DX2 analytically  !
 ! D17   D(4,1,7,14)           114.3352         calculate D2E/DX2 analytically  !
 ! D18   D(5,1,7,14)           -61.8974         calculate D2E/DX2 analytically  !
 ! D19   D(1,2,17,14)          -19.531          calculate D2E/DX2 analytically  !
 ! D20   D(1,2,17,18)         -140.7918         calculate D2E/DX2 analytically  !
 ! D21   D(1,2,17,19)          100.0376         calculate D2E/DX2 analytically  !
 ! D22   D(1,3,23,20)           38.3393         calculate D2E/DX2 analytically  !
 ! D23   D(1,3,23,24)          -80.6241         calculate D2E/DX2 analytically  !
 ! D24   D(1,3,23,25)          159.0068         calculate D2E/DX2 analytically  !
 ! D25   D(1,4,20,21)          141.3718         calculate D2E/DX2 analytically  !
 ! D26   D(1,4,20,22)          -99.4324         calculate D2E/DX2 analytically  !
 ! D27   D(1,4,20,23)           19.6292         calculate D2E/DX2 analytically  !
 ! D28   D(1,5,11,8)           -45.9662         calculate D2E/DX2 analytically  !
 ! D29   D(1,5,11,12)           74.0703         calculate D2E/DX2 analytically  !
 ! D30   D(1,5,11,13)         -167.3732         calculate D2E/DX2 analytically  !
 ! D31   D(1,7,14,15)           83.8582         calculate D2E/DX2 analytically  !
 ! D32   D(1,7,14,16)         -155.3529         calculate D2E/DX2 analytically  !
 ! D33   D(1,7,14,17)          -34.751          calculate D2E/DX2 analytically  !
 ! D34   D(6,8,11,5)            48.7758         calculate D2E/DX2 analytically  !
 ! D35   D(6,8,11,12)          -73.3106         calculate D2E/DX2 analytically  !
 ! D36   D(6,8,11,13)          170.2599         calculate D2E/DX2 analytically  !
 ! D37   D(9,8,11,5)           173.56           calculate D2E/DX2 analytically  !
 ! D38   D(9,8,11,12)           51.4736         calculate D2E/DX2 analytically  !
 ! D39   D(9,8,11,13)          -64.956          calculate D2E/DX2 analytically  !
 ! D40   D(10,8,11,5)          -74.9775         calculate D2E/DX2 analytically  !
 ! D41   D(10,8,11,12)         162.9361         calculate D2E/DX2 analytically  !
 ! D42   D(10,8,11,13)          46.5065         calculate D2E/DX2 analytically  !
 ! D43   D(7,14,17,2)           33.9226         calculate D2E/DX2 analytically  !
 ! D44   D(7,14,17,18)         155.3894         calculate D2E/DX2 analytically  !
 ! D45   D(7,14,17,19)         -86.6792         calculate D2E/DX2 analytically  !
 ! D46   D(15,14,17,2)         -85.3291         calculate D2E/DX2 analytically  !
 ! D47   D(15,14,17,18)         36.1377         calculate D2E/DX2 analytically  !
 ! D48   D(15,14,17,19)        154.069          calculate D2E/DX2 analytically  !
 ! D49   D(16,14,17,2)         154.2434         calculate D2E/DX2 analytically  !
 ! D50   D(16,14,17,18)        -84.2898         calculate D2E/DX2 analytically  !
 ! D51   D(16,14,17,19)         33.6416         calculate D2E/DX2 analytically  !
 ! D52   D(4,20,23,3)          -37.0122         calculate D2E/DX2 analytically  !
 ! D53   D(4,20,23,24)          83.6401         calculate D2E/DX2 analytically  !
 ! D54   D(4,20,23,25)        -157.751          calculate D2E/DX2 analytically  !
 ! D55   D(21,20,23,3)        -158.6883         calculate D2E/DX2 analytically  !
 ! D56   D(21,20,23,24)        -38.036          calculate D2E/DX2 analytically  !
 ! D57   D(21,20,23,25)         80.5729         calculate D2E/DX2 analytically  !
 ! D58   D(22,20,23,3)          83.3264         calculate D2E/DX2 analytically  !
 ! D59   D(22,20,23,24)       -156.0213         calculate D2E/DX2 analytically  !
 ! D60   D(22,20,23,25)        -37.4123         calculate D2E/DX2 analytically  !
 --------------------------------------------------------------------------------
 Trust Radius=3.00D-01 FncErr=1.00D-07 GrdErr=1.00D-06 EigMax=2.50D+02 EigMin=1.00D-04
 Number of steps in this run=    148 maximum allowed number of steps=    150.
 Search for a saddle point of order  1.
 GradGradGradGradGradGradGradGradGradGradGradGradGradGradGradGradGradGrad

                          Input orientation:                          
 ---------------------------------------------------------------------
 Center     Atomic      Atomic             Coordinates (Angstroms)
 Number     Number       Type             X           Y           Z
 ---------------------------------------------------------------------
      1         14           0       -0.199145   -0.165383   -0.044185
      2          8           0        0.941029   -0.881990   -1.177403
      3          8           0       -1.278459    0.552749    1.156802
      4          8           0       -1.602548   -0.734358   -0.929302
      5          8           0       -0.046653    1.430237   -0.948857
      6          8           0        1.689239    0.869184    1.085873
      7          8           0        0.129399   -1.479979    1.054075
      8          6           0        1.742373    2.094257    0.512155
      9          1           0        2.784759    2.518822    0.432788
     10          1           0        1.157383    2.873951    1.075263
     11          6           0        1.167920    2.063470   -0.918322
     12          1           0        1.905280    1.549406   -1.567655
     13          1           0        1.059922    3.100990   -1.299205
     14          6           0        1.337289   -2.095383    0.784672
     15          1           0        2.162281   -1.547136    1.262077
     16          1           0        1.334343   -3.136267    1.155017
     17          6           0        1.510381   -2.053582   -0.739130
     18          1           0        2.579092   -2.106762   -1.015825
     19          1           0        1.011625   -2.936251   -1.193942
     20          6           0       -2.799632   -0.374539   -0.345779
     21          1           0       -3.550421   -0.101351   -1.110441
     22          1           0       -3.224143   -1.212502    0.243913
     23          6           0       -2.507321    0.804249    0.594171
     24          1           0       -2.505718    1.743030    0.009120
     25          1           0       -3.288499    0.891860    1.371368
 ---------------------------------------------------------------------
                    Distance matrix (angstroms):
                    1          2          3          4          5
     1  Si   0.000000
     2  O    1.760030   0.000000
     3  O    1.767202   3.526062   0.000000
     4  O    1.754054   2.559909   2.472551   0.000000
     5  O    1.840567   2.524706   2.592514   2.665833   0.000000
     6  O    2.431739   2.957845   2.985363   4.179490   2.732806
     7  O    1.744213   2.448638   2.474793   2.736672   3.537243
     8  C    3.030673   3.514940   3.452136   4.611655   2.403350
     9  H    4.041799   4.190176   4.571584   5.629115   3.333295
    10  H    3.511536   4.385021   3.365703   4.965420   2.762440
    11  C    2.756949   2.965525   3.545869   3.937443   1.370074
    12  H    3.112887   2.644572   4.307225   4.234139   2.051135
    13  H    3.718806   3.986615   4.241878   4.683532   2.034372
    14  C    2.602409   2.340744   3.740751   3.665070   4.165383
    15  H    3.031814   2.808013   4.032281   4.431330   4.316523
    16  H    3.551876   3.267513   4.520573   4.328843   5.214057
    17  C    2.640213   1.374363   4.262059   3.386273   3.821693
    18  H    3.525853   2.051688   5.164688   4.401942   4.405608
    19  H    3.235060   2.055540   4.789948   3.428158   4.499582
    20  C    2.626259   3.865443   2.330575   1.379485   3.346612
    21  H    3.517393   4.559277   3.275675   2.056142   3.827305
    22  H    3.214043   4.413393   2.781216   2.057821   4.301536
    23  C    2.583672   4.227646   1.374739   2.346678   2.971142
    24  H    2.994188   4.492063   2.059152   2.798893   2.657548
    25  H    3.558885   5.247064   2.049706   3.283306   4.022792
                    6          7          8          9         10
     6  O    0.000000
     7  O    2.820049   0.000000
     8  C    1.353802   3.958601   0.000000
     9  H    2.085183   4.840180   1.128328   0.000000
    10  H    2.074144   4.473690   1.125712   1.785285   0.000000
    11  C    2.390584   4.186276   1.541820   2.155693   2.152062
    12  H    2.747833   4.382282   2.156157   2.390611   3.049391
    13  H    3.326499   5.233457   2.181806   2.512724   2.387288
    14  C    3.000541   1.382135   4.217990   4.848699   4.981073
    15  H    2.468485   2.044599   3.741450   4.196095   4.537701
    16  H    4.021737   2.050700   5.285654   5.882631   6.013351
    17  C    3.450389   2.334891   4.338675   4.889203   5.262814
    18  H    3.750364   3.267773   4.547899   4.851475   5.585822
    19  H    4.487544   2.820041   5.361974   5.962221   6.239310
    20  C    4.873032   3.429404   5.240307   6.337439   5.313193
    21  H    5.763659   4.486292   5.955433   7.027188   5.982737
    22  H    5.402188   3.460369   5.972679   7.075688   6.048802
    23  C    4.225767   3.518736   4.441930   5.565242   4.236174
    24  H    4.418220   4.292267   4.292165   5.363813   3.979190
    25  H    4.985970   4.172328   5.243441   6.357075   4.876703
                   11         12         13         14         15
    11  C    0.000000
    12  H    1.108871   0.000000
    13  H    1.110488   1.787207   0.000000
    14  C    4.497214   4.374991   5.605512   0.000000
    15  H    4.333517   4.202619   5.420372   1.099592   0.000000
    16  H    5.600330   5.449261   6.708345   1.104809   1.795071
    17  C    4.135155   3.718053   5.204441   1.534171   2.164784
    18  H    4.403606   3.758471   5.432206   2.187234   2.382383
    19  H    5.009751   4.589052   6.038352   2.174403   3.047241
    20  C    4.691819   5.227881   5.280576   4.620967   5.346098
    21  H    5.194815   5.718279   5.616572   5.608683   6.352488
    22  H    5.601161   6.100893   6.272212   4.677452   5.492013
    23  C    4.169013   4.969889   4.645978   4.819251   5.270701
    24  H    3.802426   4.688349   4.033554   5.486675   5.846820
    25  H    5.145388   6.003796   5.560664   5.537666   5.972575
                   16         17         18         19         20
    16  H    0.000000
    17  C    2.188833   0.000000
    18  H    2.705889   1.105229   0.000000
    19  H    2.379446   1.111178   1.782338   0.000000
    20  C    5.193195   4.642211   5.690363   4.669842   0.000000
    21  H    6.180933   5.436984   6.449927   5.371768   1.105904
    22  H    5.030982   4.908106   6.005346   4.793795   1.109111
    23  C    5.531781   5.107526   6.077637   5.437984   1.535739
    24  H    6.314007   5.577024   6.459621   5.976180   2.167126
    25  H    6.135412   6.013242   7.008498   6.302882   2.188916
                   21         22         23         24         25
    21  H    0.000000
    22  H    1.781962   0.000000
    23  C    2.194054   2.168824   0.000000
    24  H    2.397199   3.050644   1.106163   0.000000
    25  H    2.685972   2.388229   1.105418   1.786884   0.000000
 Stoichiometry    C6H12O6Si(2-)
 Framework group  C1[X(C6H12O6Si)]
 Deg. of freedom    69
 Full point group                 C1      NOp   1
 Largest Abelian subgroup         C1      NOp   1
 Largest concise Abelian subgroup C1      NOp   1
                         Standard orientation:                         
 ---------------------------------------------------------------------
 Center     Atomic      Atomic             Coordinates (Angstroms)
 Number     Number       Type             X           Y           Z
 ---------------------------------------------------------------------
      1         14           0       -0.199145   -0.165383   -0.044185
      2          8           0        0.941029   -0.881990   -1.177403
      3          8           0       -1.278459    0.552749    1.156802
      4          8           0       -1.602548   -0.734358   -0.929302
      5          8           0       -0.046653    1.430237   -0.948857
      6          8           0        1.689239    0.869184    1.085873
      7          8           0        0.129399   -1.479979    1.054075
      8          6           0        1.742373    2.094257    0.512155
      9          1           0        2.784759    2.518822    0.432788
     10          1           0        1.157383    2.873951    1.075263
     11          6           0        1.167920    2.063470   -0.918322
     12          1           0        1.905280    1.549406   -1.567655
     13          1           0        1.059922    3.100990   -1.299205
     14          6           0        1.337289   -2.095383    0.784672
     15          1           0        2.162281   -1.547136    1.262077
     16          1           0        1.334343   -3.136267    1.155017
     17          6           0        1.510381   -2.053582   -0.739130
     18          1           0        2.579092   -2.106762   -1.015825
     19          1           0        1.011625   -2.936251   -1.193942
     20          6           0       -2.799632   -0.374539   -0.345779
     21          1           0       -3.550421   -0.101351   -1.110441
     22          1           0       -3.224143   -1.212502    0.243913
     23          6           0       -2.507321    0.804249    0.594171
     24          1           0       -2.505718    1.743030    0.009120
     25          1           0       -3.288499    0.891860    1.371368
 ---------------------------------------------------------------------
 Rotational constants (GHZ):           0.9426810           0.8102443           0.5953503
 Standard basis: def2TZVPP (5D, 7F)
 There are   660 symmetry adapted cartesian basis functions of A   symmetry.
 There are   582 symmetry adapted basis functions of A   symmetry.
   582 basis functions,   885 primitive gaussians,   660 cartesian basis functions
    56 alpha electrons       56 beta electrons
       nuclear repulsion energy      1105.7353439759 Hartrees.
 NAtoms=   25 NActive=   25 NUniq=   25 SFac= 1.00D+00 NAtFMM=   60 NAOKFM=F Big=F
 Integral buffers will be    131072 words long.
 Raffenetti 2 integral format.
 Two-electron integral symmetry is turned on.
 Nuclear repulsion after empirical dispersion term =     1105.7198175110 Hartrees.
 One-electron integrals computed using PRISM.
   1 Symmetry operations used in ECPInt.
 ECPInt:  NShTT=   23871 NPrTT=   66401 LenC2=   22471 LenP2D=   47669.
 LDataN:  DoStor=T MaxTD1= 6 Len=  172
 NBasis=   582 RedAO= T EigKep=  2.44D-04  NBF=   582
 NBsUse=   582 1.00D-06 EigRej= -1.00D+00 NBFU=   582
 ExpMin= 7.01D-02 ExpMax= 4.48D+04 ExpMxC= 1.53D+03 IAcc=3 IRadAn=         5 AccDes= 0.00D+00
 Harris functional with IExCor= 4639 and IRadAn=       5 diagonalized for initial guess.
 HarFok:  IExCor= 4639 AccDes= 0.00D+00 IRadAn=         5 IDoV= 1 UseB2=F ITyADJ=14
 ICtDFT=  3500011 ScaDFX=  1.000000  1.000000  1.000000  1.000000
 FoFCou: FMM=F IPFlag=           0 FMFlag=      100000 FMFlg1=           0
         NFxFlg=           0 DoJE=T BraDBF=F KetDBF=T FulRan=T
         wScrn=  0.000000 ICntrl=       500 IOpCl=  0 I1Cent=   200000004 NGrid=           0
         NMat0=    1 NMatS0=      1 NMatT0=    0 NMatD0=    1 NMtDS0=    0 NMtDT0=    0
 Petite list used in FoFCou.
 Requested convergence on RMS density matrix=1.00D-08 within 128 cycles.
 Requested convergence on MAX density matrix=1.00D-06.
 Requested convergence on             energy=1.00D-06.
 No special actions if energy rises.
 Integral accuracy reduced to 1.0D-05 until final iterations.
 Initial convergence to 1.0D-05 achieved.  Increase integral accuracy.
 SCF Done:  E(RwB97XD) =  -976.849660987     A.U. after   16 cycles
            NFock= 16  Conv=0.33D-08     -V/T= 2.0039
 DoSCS=F DFT=T ScalE2(SS,OS)=  1.000000  1.000000
 Range of M.O.s used for correlation:     1   582
 NBasis=   582 NAE=    56 NBE=    56 NFC=     0 NFV=     0
 NROrb=    582 NOA=    56 NOB=    56 NVA=   526 NVB=   526

 **** Warning!!: The largest alpha MO coefficient is  0.13045735D+02

   1 Symmetry operations used in ECPInt.
 ECPInt:  NShTT=   23871 NPrTT=   66401 LenC2=   22471 LenP2D=   47669.
 LDataN:  DoStor=T MaxTD1= 7 Len=  274
 Number of processors reduced to   3 by ecpmxn.
 Symmetrizing basis deriv contribution to polar:
 IMax=3 JMax=2 DiffMx= 0.00D+00
 G2DrvN: will do    26 centers at a time, making    1 passes.
 Calling FoFCou, ICntrl=  3107 FMM=F I1Cent=   0 AccDes= 0.00D+00.
 End of G2Drv F.D. properties file   721 does not exist.
 End of G2Drv F.D. properties file   722 does not exist.
 End of G2Drv F.D. properties file   788 does not exist.
          IDoAtm=1111111111111111111111111
          Differentiating once with respect to electric field.
                with respect to dipole field.
          Differentiating once with respect to nuclear coordinates.
 CalDSu exits because no D1Ps are significant.
          There are    78 degrees of freedom in the 1st order CPHF.  IDoFFX=6 NUNeed=     3.
     75 vectors produced by pass  0 Test12= 3.78D-14 1.28D-09 XBig12= 5.29D+01 1.16D+00.
 AX will form    75 AO Fock derivatives at one time.
     75 vectors produced by pass  1 Test12= 3.78D-14 1.28D-09 XBig12= 5.21D+00 2.90D-01.
     75 vectors produced by pass  2 Test12= 3.78D-14 1.28D-09 XBig12= 1.14D-01 4.25D-02.
     75 vectors produced by pass  3 Test12= 3.78D-14 1.28D-09 XBig12= 1.54D-03 5.12D-03.
     75 vectors produced by pass  4 Test12= 3.78D-14 1.28D-09 XBig12= 1.86D-05 5.01D-04.
     75 vectors produced by pass  5 Test12= 3.78D-14 1.28D-09 XBig12= 1.51D-07 3.40D-05.
     75 vectors produced by pass  6 Test12= 3.78D-14 1.28D-09 XBig12= 1.28D-09 2.78D-06.
     41 vectors produced by pass  7 Test12= 3.78D-14 1.28D-09 XBig12= 9.70D-12 2.64D-07.
      3 vectors produced by pass  8 Test12= 3.78D-14 1.28D-09 XBig12= 6.69D-14 2.42D-08.
      3 vectors produced by pass  9 Test12= 3.78D-14 1.28D-09 XBig12= 5.68D-16 1.81D-09.
 InvSVY:  IOpt=1 It=  1 EMax= 3.55D-15
 Solved reduced A of dimension   572 with    78 vectors.
 Isotropic polarizability for W=    0.000000      133.25 Bohr**3.
 End of Minotr F.D. properties file   721 does not exist.
 End of Minotr F.D. properties file   722 does not exist.
 End of Minotr F.D. properties file   788 does not exist.

 **********************************************************************

            Population analysis using the SCF Density.

 **********************************************************************

 Orbital symmetries:
       Occupied  (A) (A) (A) (A) (A) (A) (A) (A) (A) (A) (A) (A)
                 (A) (A) (A) (A) (A) (A) (A) (A) (A) (A) (A) (A)
                 (A) (A) (A) (A) (A) (A) (A) (A) (A) (A) (A) (A)
                 (A) (A) (A) (A) (A) (A) (A) (A) (A) (A) (A) (A)
                 (A) (A) (A) (A) (A) (A) (A) (A)
       Virtual   (A) (A) (A) (A) (A) (A) (A) (A) (A) (A) (A) (A)
                 (A) (A) (A) (A) (A) (A) (A) (A) (A) (A) (A) (A)
                 (A) (A) (A) (A) (A) (A) (A) (A) (A) (A) (A) (A)
                 (A) (A) (A) (A) (A) (A) (A) (A) (A) (A) (A) (A)
                 (A) (A) (A) (A) (A) (A) (A) (A) (A) (A) (A) (A)
                 (A) (A) (A) (A) (A) (A) (A) (A) (A) (A) (A) (A)
                 (A) (A) (A) (A) (A) (A) (A) (A) (A) (A) (A) (A)
                 (A) (A) (A) (A) (A) (A) (A) (A) (A) (A) (A) (A)
                 (A) (A) (A) (A) (A) (A) (A) (A) (A) (A) (A) (A)
                 (A) (A) (A) (A) (A) (A) (A) (A) (A) (A) (A) (A)
                 (A) (A) (A) (A) (A) (A) (A) (A) (A) (A) (A) (A)
                 (A) (A) (A) (A) (A) (A) (A) (A) (A) (A) (A) (A)
                 (A) (A) (A) (A) (A) (A) (A) (A) (A) (A) (A) (A)
                 (A) (A) (A) (A) (A) (A) (A) (A) (A) (A) (A) (A)
                 (A) (A) (A) (A) (A) (A) (A) (A) (A) (A) (A) (A)
                 (A) (A) (A) (A) (A) (A) (A) (A) (A) (A) (A) (A)
                 (A) (A) (A) (A) (A) (A) (A) (A) (A) (A) (A) (A)
                 (A) (A) (A) (A) (A) (A) (A) (A) (A) (A) (A) (A)
                 (A) (A) (A) (A) (A) (A) (A) (A) (A) (A) (A) (A)
                 (A) (A) (A) (A) (A) (A) (A) (A) (A) (A) (A) (A)
                 (A) (A) (A) (A) (A) (A) (A) (A) (A) (A) (A) (A)
                 (A) (A) (A) (A) (A) (A) (A) (A) (A) (A) (A) (A)
                 (A) (A) (A) (A) (A) (A) (A) (A) (A) (A) (A) (A)
                 (A) (A) (A) (A) (A) (A) (A) (A) (A) (A) (A) (A)
                 (A) (A) (A) (A) (A) (A) (A) (A) (A) (A) (A) (A)
                 (A) (A) (A) (A) (A) (A) (A) (A) (A) (A) (A) (A)
                 (A) (A) (A) (A) (A) (A) (A) (A) (A) (A) (A) (A)
                 (A) (A) (A) (A) (A) (A) (A) (A) (A) (A) (A) (A)
                 (A) (A) (A) (A) (A) (A) (A) (A) (A) (A) (A) (A)
                 (A) (A) (A) (A) (A) (A) (A) (A) (A) (A) (A) (A)
                 (A) (A) (A) (A) (A) (A) (A) (A) (A) (A) (A) (A)
                 (A) (A) (A) (A) (A) (A) (A) (A) (A) (A) (A) (A)
                 (A) (A) (A) (A) (A) (A) (A) (A) (A) (A) (A) (A)
                 (A) (A) (A) (A) (A) (A) (A) (A) (A) (A) (A) (A)
                 (A) (A) (A) (A) (A) (A) (A) (A) (A) (A) (A) (A)
                 (A) (A) (A) (A) (A) (A) (A) (A) (A) (A) (A) (A)
                 (A) (A) (A) (A) (A) (A) (A) (A) (A) (A) (A) (A)
                 (A) (A) (A) (A) (A) (A) (A) (A) (A) (A) (A) (A)
                 (A) (A) (A) (A) (A) (A) (A) (A) (A) (A) (A) (A)
                 (A) (A) (A) (A) (A) (A) (A) (A) (A) (A) (A) (A)
                 (A) (A) (A) (A) (A) (A) (A) (A) (A) (A) (A) (A)
                 (A) (A) (A) (A) (A) (A) (A) (A) (A) (A) (A) (A)
                 (A) (A) (A) (A) (A) (A) (A) (A) (A) (A) (A) (A)
                 (A) (A) (A) (A) (A) (A) (A) (A) (A) (A)
 The electronic state is 1-A.
 Alpha  occ. eigenvalues --  -65.99454 -18.91412 -18.90720 -18.90481 -18.90237
 Alpha  occ. eigenvalues --  -18.88834 -18.83587 -10.04531 -10.03814 -10.03773
 Alpha  occ. eigenvalues --  -10.02976 -10.00683  -9.99746  -5.10010  -3.44716
 Alpha  occ. eigenvalues --   -3.44492  -3.44460  -0.82991  -0.80758  -0.76649
 Alpha  occ. eigenvalues --   -0.76377  -0.75146  -0.69821  -0.53151  -0.51127
 Alpha  occ. eigenvalues --   -0.47441  -0.40750  -0.39337  -0.35357  -0.31726
 Alpha  occ. eigenvalues --   -0.29175  -0.28094  -0.27439  -0.26659  -0.24708
 Alpha  occ. eigenvalues --   -0.22743  -0.21674  -0.20890  -0.20503  -0.19352
 Alpha  occ. eigenvalues --   -0.18707  -0.17374  -0.15019  -0.12239  -0.09460
 Alpha  occ. eigenvalues --   -0.08639  -0.08017  -0.07614  -0.06451  -0.05471
 Alpha  occ. eigenvalues --   -0.04428  -0.03404  -0.02545  -0.01269   0.02365
 Alpha  occ. eigenvalues --    0.03763
 Alpha virt. eigenvalues --    0.36373   0.37104   0.38469   0.40416   0.40522
 Alpha virt. eigenvalues --    0.40833   0.41568   0.42496   0.43116   0.43515
 Alpha virt. eigenvalues --    0.46051   0.46515   0.46869   0.48358   0.49053
 Alpha virt. eigenvalues --    0.50296   0.52203   0.52892   0.52923   0.53555
 Alpha virt. eigenvalues --    0.53941   0.55003   0.55384   0.56077   0.57128
 Alpha virt. eigenvalues --    0.58288   0.60072   0.62570   0.64864   0.65340
 Alpha virt. eigenvalues --    0.65577   0.66592   0.68168   0.68856   0.69392
 Alpha virt. eigenvalues --    0.69761   0.70028   0.71624   0.71663   0.72195
 Alpha virt. eigenvalues --    0.72627   0.74002   0.74422   0.74845   0.75269
 Alpha virt. eigenvalues --    0.75978   0.76906   0.76987   0.77437   0.78150
 Alpha virt. eigenvalues --    0.78327   0.79324   0.79565   0.80329   0.80392
 Alpha virt. eigenvalues --    0.81135   0.81959   0.83168   0.83591   0.85172
 Alpha virt. eigenvalues --    0.85899   0.86209   0.87525   0.87734   0.88893
 Alpha virt. eigenvalues --    0.90098   0.91393   0.92087   0.93579   0.96315
 Alpha virt. eigenvalues --    0.96868   0.98452   0.99969   1.00724   1.01880
 Alpha virt. eigenvalues --    1.04569   1.05461   1.05704   1.06972   1.08512
 Alpha virt. eigenvalues --    1.09757   1.10871   1.11755   1.12309   1.13217
 Alpha virt. eigenvalues --    1.14547   1.15125   1.15792   1.17075   1.17532
 Alpha virt. eigenvalues --    1.18150   1.19854   1.20876   1.21719   1.22089
 Alpha virt. eigenvalues --    1.22419   1.23042   1.24806   1.25327   1.27399
 Alpha virt. eigenvalues --    1.29107   1.30241   1.30903   1.31532   1.32968
 Alpha virt. eigenvalues --    1.34124   1.34263   1.34805   1.35266   1.36229
 Alpha virt. eigenvalues --    1.38168   1.38990   1.39711   1.40839   1.41673
 Alpha virt. eigenvalues --    1.42618   1.43298   1.45065   1.45970   1.46206
 Alpha virt. eigenvalues --    1.46418   1.47969   1.49535   1.50019   1.50684
 Alpha virt. eigenvalues --    1.51332   1.53509   1.54063   1.54986   1.55412
 Alpha virt. eigenvalues --    1.55968   1.56592   1.58300   1.59347   1.59744
 Alpha virt. eigenvalues --    1.60576   1.62577   1.63134   1.63252   1.65699
 Alpha virt. eigenvalues --    1.66348   1.66947   1.67896   1.68304   1.69913
 Alpha virt. eigenvalues --    1.70084   1.71559   1.72634   1.73399   1.74589
 Alpha virt. eigenvalues --    1.75209   1.76166   1.77514   1.78136   1.78781
 Alpha virt. eigenvalues --    1.79514   1.81511   1.82478   1.83625   1.85365
 Alpha virt. eigenvalues --    1.86486   1.87884   1.88985   1.89228   1.90749
 Alpha virt. eigenvalues --    1.91214   1.93309   1.93853   1.94204   1.95533
 Alpha virt. eigenvalues --    1.97424   1.98364   2.00231   2.00727   2.04159
 Alpha virt. eigenvalues --    2.05673   2.07074   2.10088   2.11811   2.14552
 Alpha virt. eigenvalues --    2.17816   2.20343   2.21218   2.24158   2.27260
 Alpha virt. eigenvalues --    2.28155   2.30139   2.32446   2.34285   2.36068
 Alpha virt. eigenvalues --    2.37541   2.38286   2.38399   2.41887   2.42826
 Alpha virt. eigenvalues --    2.44060   2.44573   2.45665   2.46825   2.49851
 Alpha virt. eigenvalues --    2.50789   2.51551   2.52650   2.53667   2.55659
 Alpha virt. eigenvalues --    2.56168   2.57780   2.59450   2.62047   2.64152
 Alpha virt. eigenvalues --    2.66342   2.66730   2.68272   2.69112   2.72623
 Alpha virt. eigenvalues --    2.73617   2.74194   2.75535   2.77342   2.78829
 Alpha virt. eigenvalues --    2.80681   2.82818   2.83856   2.88144   2.89444
 Alpha virt. eigenvalues --    2.90586   2.94504   2.95794   2.97183   2.98883
 Alpha virt. eigenvalues --    2.99634   3.00328   3.01064   3.02081   3.02951
 Alpha virt. eigenvalues --    3.03480   3.04770   3.06272   3.11710   3.13160
 Alpha virt. eigenvalues --    3.14984   3.15589   3.16236   3.17372   3.19112
 Alpha virt. eigenvalues --    3.19650   3.20676   3.20885   3.23238   3.24931
 Alpha virt. eigenvalues --    3.25822   3.26684   3.27477   3.28979   3.30838
 Alpha virt. eigenvalues --    3.32241   3.32801   3.33507   3.33941   3.35447
 Alpha virt. eigenvalues --    3.36141   3.37052   3.37739   3.38242   3.39361
 Alpha virt. eigenvalues --    3.40061   3.43022   3.43849   3.44737   3.47286
 Alpha virt. eigenvalues --    3.47876   3.48954   3.49449   3.50455   3.51222
 Alpha virt. eigenvalues --    3.51305   3.52334   3.52981   3.53652   3.55169
 Alpha virt. eigenvalues --    3.55955   3.56995   3.58055   3.58697   3.60389
 Alpha virt. eigenvalues --    3.61245   3.62703   3.64135   3.66175   3.66683
 Alpha virt. eigenvalues --    3.68757   3.69479   3.70470   3.71124   3.73235
 Alpha virt. eigenvalues --    3.73781   3.75629   3.77648   3.79560   3.80789
 Alpha virt. eigenvalues --    3.83036   3.85890   3.85970   3.88469   3.89629
 Alpha virt. eigenvalues --    3.89952   3.91424   3.91988   3.93633   3.94232
 Alpha virt. eigenvalues --    3.94587   3.95832   3.97658   3.99556   4.00908
 Alpha virt. eigenvalues --    4.01786   4.02365   4.03942   4.04413   4.05352
 Alpha virt. eigenvalues --    4.06407   4.07655   4.09634   4.10422   4.10637
 Alpha virt. eigenvalues --    4.11225   4.12017   4.13176   4.14306   4.14836
 Alpha virt. eigenvalues --    4.16485   4.18327   4.19010   4.20700   4.21033
 Alpha virt. eigenvalues --    4.22208   4.22805   4.24232   4.30616   4.31717
 Alpha virt. eigenvalues --    4.32187   4.33974   4.34991   4.35931   4.36662
 Alpha virt. eigenvalues --    4.37466   4.39384   4.39875   4.40773   4.41957
 Alpha virt. eigenvalues --    4.43745   4.45624   4.47579   4.48859   4.50440
 Alpha virt. eigenvalues --    4.50769   4.52977   4.53933   4.54796   4.55133
 Alpha virt. eigenvalues --    4.57325   4.58639   4.59803   4.60885   4.63320
 Alpha virt. eigenvalues --    4.64242   4.65838   4.66664   4.68238   4.69427
 Alpha virt. eigenvalues --    4.70870   4.71547   4.72277   4.72937   4.73804
 Alpha virt. eigenvalues --    4.82735   4.83930   4.86060   4.89711   4.91383
 Alpha virt. eigenvalues --    4.93041   4.94375   4.95495   4.96030   4.97421
 Alpha virt. eigenvalues --    4.99577   5.01679   5.02647   5.03686   5.04682
 Alpha virt. eigenvalues --    5.07188   5.08179   5.12369   5.13133   5.14409
 Alpha virt. eigenvalues --    5.15240   5.16466   5.17078   5.18666   5.19196
 Alpha virt. eigenvalues --    5.22003   5.22928   5.24618   5.27556   5.28659
 Alpha virt. eigenvalues --    5.29260   5.30936   5.31933   5.33855   5.36429
 Alpha virt. eigenvalues --    5.37372   5.38802   5.41832   5.42417   5.43530
 Alpha virt. eigenvalues --    5.46616   5.47189   5.49311   5.50828   5.51978
 Alpha virt. eigenvalues --    5.53803   5.54976   5.55794   5.61880   5.63266
 Alpha virt. eigenvalues --    5.64269   5.65977   5.67081   5.69756   5.71044
 Alpha virt. eigenvalues --    5.72897   5.74321   5.75301   5.75779   5.77351
 Alpha virt. eigenvalues --    5.80381   5.80925   5.83535   5.84512   5.85983
 Alpha virt. eigenvalues --    5.86167   5.87302   5.88617   5.89759   5.91989
 Alpha virt. eigenvalues --    5.92953   5.94736   5.96209   5.97159   5.98537
 Alpha virt. eigenvalues --    5.99878   6.01596   6.02073   6.05320   6.08448
 Alpha virt. eigenvalues --    6.09300   6.11041   6.11871   6.13257   6.14133
 Alpha virt. eigenvalues --    6.25663   6.36597   6.37854   6.39374   6.42451
 Alpha virt. eigenvalues --    6.44255   6.47700   6.49004   6.49103   6.52071
 Alpha virt. eigenvalues --    6.54402   6.54617   6.55613   6.59160   6.60225
 Alpha virt. eigenvalues --    6.61383   6.62006   6.65632   6.66494   6.75115
 Alpha virt. eigenvalues --    6.96869   6.99798   7.01136   7.04011   7.05431
 Alpha virt. eigenvalues --    7.08572   7.09844   7.14082   7.15423   7.17874
 Alpha virt. eigenvalues --    7.23357   7.24871   7.27727   7.30827   7.34379
 Alpha virt. eigenvalues --    7.37317   7.38974   7.41062   7.42980   7.45866
 Alpha virt. eigenvalues --    7.47730   7.50392   7.54191   7.56897   7.58811
 Alpha virt. eigenvalues --    7.64208   7.66956   7.69658   7.76020   7.84386
 Alpha virt. eigenvalues --    7.87237   7.94065   7.99626  12.16685  23.66617
 Alpha virt. eigenvalues --   23.69287  23.72816  23.79710  23.81633  23.83734
 Alpha virt. eigenvalues --   44.50282  44.53916  44.56050  44.60579  44.72439
 Alpha virt. eigenvalues --   44.76671
          Condensed to atoms (all electrons):
               1          2          3          4          5          6
     1  Si  11.475427   0.342436   0.358556   0.383161   0.337673   0.153958
     2  O    0.342436   8.075435   0.006365  -0.034807  -0.051724  -0.010552
     3  O    0.358556   0.006365   8.059075  -0.036364  -0.037031  -0.011686
     4  O    0.383161  -0.034807  -0.036364   8.041248  -0.035390   0.000423
     5  O    0.337673  -0.051724  -0.037031  -0.035390   8.134938  -0.009631
     6  O    0.153958  -0.010552  -0.011686   0.000423  -0.009631   8.380319
     7  O    0.401945  -0.047438  -0.052129  -0.023155   0.001204  -0.029825
     8  C   -0.027834  -0.002756   0.002921  -0.001593  -0.111365   0.483108
     9  H    0.005809  -0.000391  -0.000228   0.000015   0.009147  -0.056081
    10  H   -0.014040  -0.000104   0.005066  -0.000016   0.018773  -0.072620
    11  C   -0.034014  -0.001068   0.000110   0.000705   0.351193  -0.191310
    12  H   -0.026674   0.019251  -0.000276   0.000335  -0.063049   0.020941
    13  H   -0.001016  -0.000123  -0.000518  -0.000079  -0.041205   0.014894
    14  C   -0.044377  -0.102393   0.004040  -0.004516  -0.002678  -0.016819
    15  H   -0.021360   0.009388   0.000464  -0.000475   0.000672   0.028731
    16  H    0.003967   0.006921  -0.000074   0.000188  -0.000042   0.000738
    17  C   -0.045095   0.386055  -0.000424   0.005170   0.001544   0.007705
    18  H    0.005712  -0.048346   0.000075  -0.000553  -0.000340  -0.000278
    19  H   -0.010269  -0.063720  -0.000024   0.003238  -0.000146   0.000166
    20  C   -0.058592   0.001014  -0.112934   0.386992  -0.004684  -0.001101
    21  H   -0.005789  -0.000153   0.007640  -0.047774   0.000872   0.000009
    22  H    0.010414   0.000108   0.014831  -0.069642  -0.000708   0.000046
    23  C   -0.073812  -0.001041   0.376034  -0.119395  -0.005168  -0.000465
    24  H    0.017484   0.000343  -0.061147   0.009696   0.019297   0.000671
    25  H   -0.003993   0.000059  -0.048893   0.005749   0.000237  -0.000134
               7          8          9         10         11         12
     1  Si   0.401945  -0.027834   0.005809  -0.014040  -0.034014  -0.026674
     2  O   -0.047438  -0.002756  -0.000391  -0.000104  -0.001068   0.019251
     3  O   -0.052129   0.002921  -0.000228   0.005066   0.000110  -0.000276
     4  O   -0.023155  -0.001593   0.000015  -0.000016   0.000705   0.000335
     5  O    0.001204  -0.111365   0.009147   0.018773   0.351193  -0.063049
     6  O   -0.029825   0.483108  -0.056081  -0.072620  -0.191310   0.020941
     7  O    8.045195   0.001309  -0.000557   0.000222  -0.003193   0.000331
     8  C    0.001309   4.850061   0.162841   0.321967   0.238179  -0.100375
     9  H   -0.000557   0.162841   1.183218  -0.157876  -0.026470  -0.015988
    10  H    0.000222   0.321967  -0.157876   1.120370  -0.157187   0.033230
    11  C   -0.003193   0.238179  -0.026470  -0.157187   5.097535   0.359229
    12  H    0.000331  -0.100375  -0.015988   0.033230   0.359229   0.893927
    13  H   -0.000076  -0.003984   0.023105  -0.003697   0.227775  -0.084918
    14  C    0.348464  -0.002531   0.003226  -0.001322  -0.003270  -0.000226
    15  H   -0.042335   0.004141  -0.002350   0.001027   0.001392   0.000630
    16  H   -0.048473   0.000087  -0.000064   0.000040  -0.000201   0.000028
    17  C   -0.119684   0.000330  -0.001246   0.000881  -0.002817   0.003974
    18  H    0.006721   0.000032   0.000105   0.000013   0.001203  -0.000780
    19  H    0.014231   0.000039  -0.000004  -0.000001   0.000300   0.000333
    20  C   -0.001834  -0.000661  -0.000053   0.000318   0.000857  -0.000203
    21  H   -0.000368   0.000037  -0.000000  -0.000011   0.000152   0.000006
    22  H    0.002404  -0.000072   0.000001  -0.000006  -0.000039  -0.000000
    23  C    0.000980   0.000817   0.000039   0.001036  -0.004426  -0.000289
    24  H   -0.000811  -0.001942   0.000055   0.000771  -0.000450   0.000696
    25  H    0.000345  -0.000069  -0.000010   0.000033   0.000403   0.000011
              13         14         15         16         17         18
     1  Si  -0.001016  -0.044377  -0.021360   0.003967  -0.045095   0.005712
     2  O   -0.000123  -0.102393   0.009388   0.006921   0.386055  -0.048346
     3  O   -0.000518   0.004040   0.000464  -0.000074  -0.000424   0.000075
     4  O   -0.000079  -0.004516  -0.000475   0.000188   0.005170  -0.000553
     5  O   -0.041205  -0.002678   0.000672  -0.000042   0.001544  -0.000340
     6  O    0.014894  -0.016819   0.028731   0.000738   0.007705  -0.000278
     7  O   -0.000076   0.348464  -0.042335  -0.048473  -0.119684   0.006721
     8  C   -0.003984  -0.002531   0.004141   0.000087   0.000330   0.000032
     9  H    0.023105   0.003226  -0.002350  -0.000064  -0.001246   0.000105
    10  H   -0.003697  -0.001322   0.001027   0.000040   0.000881   0.000013
    11  C    0.227775  -0.003270   0.001392  -0.000201  -0.002817   0.001203
    12  H   -0.084918  -0.000226   0.000630   0.000028   0.003974  -0.000780
    13  H    0.932131   0.000223  -0.000066  -0.000004   0.000289  -0.000094
    14  C    0.000223   4.923809   0.389768   0.280657   0.194888  -0.006633
    15  H   -0.000066   0.389768   0.772216  -0.088025  -0.064836  -0.020040
    16  H   -0.000004   0.280657  -0.088025   0.891034   0.003613   0.016446
    17  C    0.000289   0.194888  -0.064836   0.003613   4.849309   0.312921
    18  H   -0.000094  -0.006633  -0.020040   0.016446   0.312921   0.896020
    19  H    0.000016  -0.053512   0.021959  -0.028909   0.354014  -0.124073
    20  C   -0.000428  -0.001851  -0.000127   0.000595   0.000769   0.000019
    21  H    0.000012   0.000024  -0.000005  -0.000007  -0.000030  -0.000006
    22  H    0.000002   0.000660   0.000048  -0.000080  -0.000252  -0.000007
    23  C    0.001693  -0.000097  -0.000087  -0.000031  -0.001376   0.000038
    24  H   -0.000262  -0.000018   0.000004  -0.000001   0.000055  -0.000001
    25  H   -0.000102   0.000192   0.000008  -0.000004   0.000003   0.000001
              19         20         21         22         23         24
     1  Si  -0.010269  -0.058592  -0.005789   0.010414  -0.073812   0.017484
     2  O   -0.063720   0.001014  -0.000153   0.000108  -0.001041   0.000343
     3  O   -0.000024  -0.112934   0.007640   0.014831   0.376034  -0.061147
     4  O    0.003238   0.386992  -0.047774  -0.069642  -0.119395   0.009696
     5  O   -0.000146  -0.004684   0.000872  -0.000708  -0.005168   0.019297
     6  O    0.000166  -0.001101   0.000009   0.000046  -0.000465   0.000671
     7  O    0.014231  -0.001834  -0.000368   0.002404   0.000980  -0.000811
     8  C    0.000039  -0.000661   0.000037  -0.000072   0.000817  -0.001942
     9  H   -0.000004  -0.000053  -0.000000   0.000001   0.000039   0.000055
    10  H   -0.000001   0.000318  -0.000011  -0.000006   0.001036   0.000771
    11  C    0.000300   0.000857   0.000152  -0.000039  -0.004426  -0.000450
    12  H    0.000333  -0.000203   0.000006  -0.000000  -0.000289   0.000696
    13  H    0.000016  -0.000428   0.000012   0.000002   0.001693  -0.000262
    14  C   -0.053512  -0.001851   0.000024   0.000660  -0.000097  -0.000018
    15  H    0.021959  -0.000127  -0.000005   0.000048  -0.000087   0.000004
    16  H   -0.028909   0.000595  -0.000007  -0.000080  -0.000031  -0.000001
    17  C    0.354014   0.000769  -0.000030  -0.000252  -0.001376   0.000055
    18  H   -0.124073   0.000019  -0.000006  -0.000007   0.000038  -0.000001
    19  H    0.924540  -0.000168  -0.000011   0.000092  -0.000094   0.000009
    20  C   -0.000168   4.872505   0.304849   0.366898   0.213072  -0.093908
    21  H   -0.000011   0.304849   0.904084  -0.118695  -0.002630  -0.015361
    22  H    0.000092   0.366898  -0.118695   0.898640  -0.071456   0.024404
    23  C   -0.000094   0.213072  -0.002630  -0.071456   4.927858   0.366681
    24  H    0.000009  -0.093908  -0.015361   0.024404   0.366681   0.862918
    25  H   -0.000003   0.007471   0.015321  -0.027024   0.291219  -0.110176
              25
     1  Si  -0.003993
     2  O    0.000059
     3  O   -0.048893
     4  O    0.005749
     5  O    0.000237
     6  O   -0.000134
     7  O    0.000345
     8  C   -0.000069
     9  H   -0.000010
    10  H    0.000033
    11  C    0.000403
    12  H    0.000011
    13  H   -0.000102
    14  C    0.000192
    15  H    0.000008
    16  H   -0.000004
    17  C    0.000003
    18  H    0.000001
    19  H   -0.000003
    20  C    0.007471
    21  H    0.015321
    22  H   -0.027024
    23  C    0.291219
    24  H   -0.110176
    25  H    0.902718
 Mulliken charges:
               1
     1  Si   0.870324
     2  O   -0.482760
     3  O   -0.473451
     4  O   -0.463161
     5  O   -0.512389
     6  O   -0.691206
     7  O   -0.453470
     8  C    0.187313
     9  H   -0.126245
    10  H   -0.096868
    11  C    0.145411
    12  H   -0.040147
    13  H   -0.063568
    14  C    0.094291
    15  H    0.009256
    16  H   -0.038402
    17  C    0.114240
    18  H   -0.038153
    19  H   -0.038005
    20  C    0.121185
    21  H   -0.042165
    22  H   -0.030565
    23  C    0.100899
    24  H   -0.019005
    25  H   -0.033359
 Sum of Mulliken charges =  -2.00000
 Mulliken charges with hydrogens summed into heavy atoms:
               1
     1  Si   0.870324
     2  O   -0.482760
     3  O   -0.473451
     4  O   -0.463161
     5  O   -0.512389
     6  O   -0.691206
     7  O   -0.453470
     8  C   -0.035800
    11  C    0.041697
    14  C    0.065145
    17  C    0.038082
    20  C    0.048455
    23  C    0.048535
 APT charges:
               1
     1  Si   2.624698
     2  O   -0.999237
     3  O   -1.007323
     4  O   -1.007525
     5  O   -1.040372
     6  O   -1.086951
     7  O   -1.008681
     8  C    0.795442
     9  H   -0.305559
    10  H   -0.265698
    11  C    0.608637
    12  H   -0.158226
    13  H   -0.212015
    14  C    0.532643
    15  H   -0.075265
    16  H   -0.178096
    17  C    0.624323
    18  H   -0.165692
    19  H   -0.198955
    20  C    0.611453
    21  H   -0.180481
    22  H   -0.180180
    23  C    0.578827
    24  H   -0.125776
    25  H   -0.179993
 Sum of APT charges =  -2.00000
 APT charges with hydrogens summed into heavy atoms:
               1
     1  Si   2.624698
     2  O   -0.999237
     3  O   -1.007323
     4  O   -1.007525
     5  O   -1.040372
     6  O   -1.086951
     7  O   -1.008681
     8  C    0.224185
    11  C    0.238396
    14  C    0.279283
    17  C    0.259675
    20  C    0.250792
    23  C    0.273058
 Electronic spatial extent (au):  <R**2>=           2294.1384
 Charge=             -2.0000 electrons
 Dipole moment (field-independent basis, Debye):
    X=             -2.3250    Y=             -2.2554    Z=             -1.3050  Tot=              3.4922
 Quadrupole moment (field-independent basis, Debye-Ang):
   XX=           -116.0218   YY=           -114.2590   ZZ=           -110.9872
   XY=             -6.3599   XZ=             -3.7470   YZ=             -2.1252
 Traceless Quadrupole moment (field-independent basis, Debye-Ang):
   XX=             -2.2658   YY=             -0.5031   ZZ=              2.7688
   XY=             -6.3599   XZ=             -3.7470   YZ=             -2.1252
 Octapole moment (field-independent basis, Debye-Ang**2):
  XXX=             -9.5903  YYY=            -21.9378  ZZZ=             -2.2106  XYY=            -20.6248
  XXY=            -14.5538  XXZ=             -6.9502  XZZ=             -7.0005  YZZ=             -4.5416
  YYZ=             -0.4967  XYZ=             -2.9453
 Hexadecapole moment (field-independent basis, Debye-Ang**3):
 XXXX=          -1684.3475 YYYY=          -1416.2510 ZZZZ=           -552.7850 XXXY=            -44.2665
 XXXZ=            -19.0913 YYYX=            -33.5562 YYYZ=              2.1176 ZZZX=              0.4552
 ZZZY=             -3.2620 XXYY=           -534.3567 XXZZ=           -375.7045 YYZZ=           -335.5097
 XXYZ=            -21.8875 YYXZ=             -2.9980 ZZXY=             -8.3379
 N-N= 1.105719817511D+03 E-N=-4.553523546022D+03  KE= 9.731028860153D+02
  Exact polarizability:     144.295       1.149     144.223      -2.228      -0.745     111.231
 Approx polarizability:     140.021      -1.094     139.850      -1.247      -3.036     124.291
   1 Symmetry operations used in ECPInt.
 ECPInt:  NShTT=   23871 NPrTT=   66401 LenC2=   22471 LenP2D=   47669.
 LDataN:  DoStor=T MaxTD1= 8 Len=  415
 Calling FoFJK, ICntrl=    100127 FMM=F ISym2X=0 I1Cent= 0 IOpClX= 0 NMat=1 NMatS=1 NMatT=0.
 ***** Axes restored to original set *****
 -------------------------------------------------------------------
 Center     Atomic                   Forces (Hartrees/Bohr)
 Number     Number              X              Y              Z
 -------------------------------------------------------------------
      1       14           0.014818031    0.028277710   -0.004363046
      2        8           0.000009715   -0.000016796   -0.000003358
      3        8          -0.000001018   -0.000009051   -0.000014515
      4        8          -0.000010452    0.000010058   -0.000001628
      5        8          -0.008246678   -0.023448433    0.011110156
      6        8          -0.011838405    0.000124343   -0.011571713
      7        8          -0.000010958    0.000010904   -0.000014149
      8        6          -0.000872739   -0.006294087    0.003060436
      9        1           0.000000165   -0.000001422    0.000004132
     10        1           0.000000138   -0.000000872    0.000004745
     11        6           0.006130788    0.001343255    0.001805581
     12        1          -0.000000604    0.000000784    0.000005030
     13        1          -0.000001258   -0.000000460    0.000000047
     14        6           0.000031011   -0.000016147    0.000004192
     15        1          -0.000003741    0.000003154   -0.000004206
     16        1          -0.000006036    0.000001958   -0.000001701
     17        6          -0.000005218    0.000023668   -0.000003960
     18        1           0.000004090   -0.000003022   -0.000004439
     19        1          -0.000001908   -0.000005532   -0.000003335
     20        6           0.000013258    0.000002027   -0.000011025
     21        1          -0.000001924   -0.000001378   -0.000002597
     22        1          -0.000005550   -0.000003096    0.000002409
     23        6           0.000004853   -0.000003382    0.000001069
     24        1          -0.000001323    0.000005471    0.000002437
     25        1          -0.000004239    0.000000348   -0.000000562
 -------------------------------------------------------------------
 Cartesian Forces:  Max     0.028277710 RMS     0.005349115
 FormGI is forming the generalized inverse of G from B-inverse, IUseBI=4.

 GradGradGradGradGradGradGradGradGradGradGradGradGradGradGradGradGradGrad
 Berny optimization.
 Internal  Forces:  Max     0.051790451 RMS     0.007414726
 Search for a saddle point.
 Step number   1 out of a maximum of  148
 All quantities printed in internal units (Hartrees-Bohrs-Radians)
 Swapping is turned off.
 Second derivative matrix not updated -- analytic derivatives used.
 ITU=  0
     Eigenvalues ---   -0.16245   0.00196   0.00258   0.00551   0.00690
     Eigenvalues ---    0.00772   0.01077   0.02116   0.03849   0.04174
     Eigenvalues ---    0.04304   0.04455   0.04625   0.04761   0.04836
     Eigenvalues ---    0.04993   0.05200   0.05460   0.05675   0.06422
     Eigenvalues ---    0.06911   0.07743   0.08481   0.09248   0.09311
     Eigenvalues ---    0.09641   0.09926   0.10112   0.10382   0.10611
     Eigenvalues ---    0.10688   0.10895   0.11299   0.12298   0.13082
     Eigenvalues ---    0.13789   0.14629   0.15171   0.16625   0.18027
     Eigenvalues ---    0.19163   0.20494   0.20978   0.23151   0.24484
     Eigenvalues ---    0.25115   0.25333   0.25539   0.25660   0.25829
     Eigenvalues ---    0.27042   0.27736   0.28138   0.28408   0.28969
     Eigenvalues ---    0.29019   0.29528   0.29758   0.29857   0.29874
     Eigenvalues ---    0.31132   0.35370   0.36542   0.36685   0.39744
     Eigenvalues ---    0.42286   0.42617   0.43861   0.64045
 Eigenvectors required to have negative eigenvalues:
                          A13       A21       A9        A17       R4
   1                    0.41342   0.38201  -0.30590   0.27247  -0.25600
                          D2        A19       A7        D6        A23
   1                   -0.22949  -0.17141   0.16316  -0.15764  -0.15540
 RFO step:  Lambda0=1.583047931D-02 Lambda=-1.74320249D-02.
 Linear search not attempted -- option 19 set.
 Maximum step size (   0.300) exceeded in Quadratic search.
    -- Step size scaled by   0.748
 Iteration  1 RMS(Cart)=  0.04969304 RMS(Int)=  0.00502052
 Iteration  2 RMS(Cart)=  0.01111494 RMS(Int)=  0.00034643
 Iteration  3 RMS(Cart)=  0.00003842 RMS(Int)=  0.00034602
 Iteration  4 RMS(Cart)=  0.00000006 RMS(Int)=  0.00034602
 Variable       Old X    -DE/DX   Delta X   Delta X   Delta X     New X
                                 (Linear)    (Quad)   (Total)
    R1        3.32597   0.00001   0.00000   0.01187   0.01161   3.33758
    R2        3.33953  -0.00001   0.00000   0.01213   0.01210   3.35163
    R3        3.31468   0.00001   0.00000  -0.00861  -0.00863   3.30605
    R4        3.47817  -0.02791   0.00000  -0.24926  -0.24926   3.22891
    R5        3.29608  -0.00001   0.00000  -0.01608  -0.01634   3.27975
    R6        2.59717  -0.00001   0.00000  -0.00090  -0.00077   2.59640
    R7        2.59788  -0.00000   0.00000  -0.00272  -0.00270   2.59518
    R8        2.60685  -0.00001   0.00000   0.00307   0.00309   2.60994
    R9        2.58907  -0.00822   0.00000   0.02250   0.02250   2.61157
   R10        2.55831  -0.00455   0.00000  -0.03773  -0.03773   2.52058
   R11        2.61186   0.00002   0.00000   0.00303   0.00315   2.61501
   R12        2.13223  -0.00000   0.00000   0.01590   0.01590   2.14813
   R13        2.12729   0.00000   0.00000   0.01053   0.01053   2.13782
   R14        2.91362  -0.01276   0.00000  -0.00634  -0.00634   2.90728
   R15        2.09546  -0.00000   0.00000  -0.00736  -0.00736   2.08810
   R16        2.09852  -0.00000   0.00000  -0.00488  -0.00488   2.09364
   R17        2.07793  -0.00000   0.00000  -0.00285  -0.00285   2.07508
   R18        2.08779  -0.00000   0.00000  -0.00110  -0.00110   2.08668
   R19        2.89916   0.00000   0.00000  -0.00318  -0.00281   2.89636
   R20        2.08858   0.00000   0.00000  -0.00069  -0.00069   2.08789
   R21        2.09982   0.00001   0.00000   0.00074   0.00074   2.10057
   R22        2.08986   0.00000   0.00000  -0.00061  -0.00061   2.08925
   R23        2.09592   0.00001   0.00000  -0.00142  -0.00142   2.09449
   R24        2.90213   0.00000   0.00000   0.00091   0.00094   2.90306
   R25        2.09035   0.00000   0.00000   0.00251   0.00251   2.09286
   R26        2.08894   0.00000   0.00000  -0.00013  -0.00013   2.08881
    A1        1.63217   0.00000   0.00000   0.00951   0.00949   1.64166
    A2        1.55362   0.00000   0.00000   0.01001   0.01125   1.56487
    A3        1.54731  -0.00000   0.00000  -0.01210  -0.01141   1.53590
    A4        1.55689  -0.00000   0.00000  -0.00027  -0.00025   1.55664
    A5        1.60315  -0.00000   0.00000   0.01860   0.01689   1.62004
    A6        1.56420   0.00000   0.00000  -0.02302  -0.02402   1.54018
    A7        1.67043  -0.00000   0.00000   0.05564   0.05561   1.72604
    A8        1.79667   0.00001   0.00000   0.03500   0.03497   1.83164
    A9        2.81540  -0.00001   0.00000  -0.09006  -0.09007   2.72533
   A10        1.99339   0.00000   0.00000   0.00838   0.00778   2.00117
   A11        1.92000   0.00001   0.00000  -0.00559  -0.00565   1.91435
   A12        1.97821   0.00000   0.00000   0.00105   0.00098   1.97920
   A13        2.05237  -0.05179   0.00000   0.08319   0.08319   2.13555
   A14        1.95786   0.00000   0.00000   0.01472   0.01422   1.97208
   A15        1.98949   0.01148   0.00000   0.02275   0.02275   2.01224
   A16        1.97619   0.00698   0.00000   0.01654   0.01652   1.99272
   A17        1.93959  -0.02773   0.00000  -0.00012  -0.00013   1.93946
   A18        1.82828   0.00029   0.00000  -0.01441  -0.01469   1.81359
   A19        1.86132   0.00637   0.00000  -0.02452  -0.02463   1.83669
   A20        1.85909   0.00386   0.00000  -0.00452  -0.00463   1.85446
   A21        1.93928  -0.04221   0.00000   0.00632   0.00633   1.94561
   A22        1.94140   0.01076   0.00000  -0.01051  -0.01055   1.93085
   A23        1.91555   0.01542   0.00000  -0.01601  -0.01603   1.89951
   A24        1.88052   0.00588   0.00000   0.00820   0.00818   1.88870
   A25        1.91325   0.01528   0.00000   0.00734   0.00733   1.92058
   A26        1.87230  -0.00376   0.00000   0.00529   0.00514   1.87744
   A27        1.92736   0.00000   0.00000  -0.00444  -0.00444   1.92292
   A28        1.93032  -0.00000   0.00000  -0.00361  -0.00371   1.92661
   A29        1.85466  -0.00000   0.00000  -0.00543  -0.00526   1.84940
   A30        1.90308   0.00000   0.00000   0.00732   0.00731   1.91039
   A31        1.91028   0.00000   0.00000   0.00202   0.00192   1.91220
   A32        1.93790   0.00000   0.00000   0.00381   0.00378   1.94168
   A33        1.86839  -0.00000   0.00000  -0.00842  -0.00826   1.86013
   A34        1.94095   0.00000   0.00000  -0.00055  -0.00066   1.94029
   A35        1.93980   0.00000   0.00000   0.00309   0.00311   1.94291
   A36        1.93526   0.00000   0.00000   0.00134   0.00130   1.93656
   A37        1.91161  -0.00000   0.00000   0.00407   0.00402   1.91563
   A38        1.86851  -0.00000   0.00000   0.00070   0.00071   1.86922
   A39        1.94022   0.00000   0.00000  -0.00143  -0.00144   1.93878
   A40        1.93903   0.00000   0.00000  -0.00143  -0.00141   1.93762
   A41        1.86914  -0.00000   0.00000   0.00093   0.00091   1.87005
   A42        1.86964  -0.00000   0.00000   0.00061   0.00060   1.87024
   A43        1.94207   0.00000   0.00000   0.00229   0.00231   1.94438
   A44        1.90430  -0.00000   0.00000  -0.00099  -0.00100   1.90330
   A45        1.85481  -0.00000   0.00000  -0.00112  -0.00112   1.85369
   A46        1.95026  -0.00000   0.00000   0.00398   0.00399   1.95426
   A47        1.93740   0.00000   0.00000   0.00156   0.00154   1.93894
   A48        1.90497   0.00000   0.00000   0.00011   0.00008   1.90505
   A49        1.93547  -0.00000   0.00000  -0.00109  -0.00106   1.93441
   A50        1.88139  -0.00000   0.00000  -0.00337  -0.00337   1.87801
   A51        3.18906  -0.00000   0.00000   0.00924   0.00923   3.19830
   A52        3.12161   0.00000   0.00000  -0.03244  -0.03275   3.08887
    D1       -1.78184  -0.00001   0.00000  -0.02284  -0.02284  -1.80468
    D2        2.83177  -0.00001   0.00000  -0.07909  -0.07928   2.75250
    D3        0.01385   0.00000   0.00000   0.01144   0.01138   0.02523
    D4       -0.42075  -0.00000   0.00000  -0.01358  -0.01357  -0.43432
    D5        1.24929  -0.00000   0.00000   0.04189   0.04193   1.29122
    D6       -2.21754  -0.00001   0.00000  -0.04895  -0.04902  -2.26656
    D7        3.13712  -0.00000   0.00000  -0.01897  -0.01928   3.11784
    D8        0.01551  -0.00000   0.00000   0.01347   0.01347   0.02897
    D9       -1.58642   0.00000   0.00000  -0.00459  -0.00303  -1.58945
   D10        1.57634   0.00000   0.00000  -0.01078  -0.01204   1.56429
   D11       -1.14774   0.00000   0.00000   0.03778   0.03895  -1.10879
   D12        1.94463   0.00001   0.00000   0.02453   0.02401   1.96864
   D13       -2.77851   0.00000   0.00000   0.02786   0.02812  -2.75039
   D14        0.29868  -0.00000   0.00000   0.06440   0.06348   0.36216
   D15        0.36714   0.00000   0.00000  -0.00399  -0.00394   0.36320
   D16       -2.73265  -0.00000   0.00000  -0.00329  -0.00453  -2.73718
   D17        1.99553   0.00000   0.00000   0.00264   0.00252   1.99805
   D18       -1.08031   0.00000   0.00000  -0.03451  -0.03353  -1.11385
   D19       -0.34088  -0.00000   0.00000  -0.01283  -0.01279  -0.35367
   D20       -2.45728  -0.00000   0.00000  -0.00876  -0.00874  -2.46602
   D21        1.74598  -0.00000   0.00000  -0.01132  -0.01125   1.73473
   D22        0.66915   0.00000   0.00000   0.00954   0.00949   0.67864
   D23       -1.40716  -0.00000   0.00000   0.00790   0.00787  -1.39929
   D24        2.77519  -0.00000   0.00000   0.00842   0.00838   2.78358
   D25        2.46740   0.00000   0.00000  -0.00719  -0.00722   2.46018
   D26       -1.73542   0.00000   0.00000  -0.00832  -0.00833  -1.74376
   D27        0.34259   0.00000   0.00000  -0.00975  -0.00978   0.33281
   D28       -0.80226   0.01157   0.00000  -0.04759  -0.04759  -0.84985
   D29        1.29277  -0.00214   0.00000  -0.04002  -0.04010   1.25267
   D30       -2.92121   0.00971   0.00000  -0.05020  -0.05012  -2.97134
   D31        1.46360  -0.00000   0.00000  -0.00703  -0.00693   1.45667
   D32       -2.71142  -0.00000   0.00000  -0.00315  -0.00312  -2.71454
   D33       -0.60652  -0.00000   0.00000  -0.00389  -0.00382  -0.61034
   D34        0.85130  -0.00773   0.00000   0.01511   0.01512   0.86642
   D35       -1.27951   0.00125   0.00000   0.01883   0.01885  -1.26067
   D36        2.97159  -0.00573   0.00000   0.00406   0.00404   2.97564
   D37        3.02919  -0.00665   0.00000   0.02672   0.02664   3.05583
   D38        0.89838   0.00233   0.00000   0.03044   0.03037   0.92875
   D39       -1.13370  -0.00465   0.00000   0.01567   0.01556  -1.11813
   D40       -1.30860  -0.00186   0.00000  -0.00225  -0.00216  -1.31077
   D41        2.84377   0.00712   0.00000   0.00147   0.00156   2.84533
   D42        0.81169   0.00014   0.00000  -0.01331  -0.01324   0.79845
   D43        0.59206   0.00000   0.00000   0.00341   0.00351   0.59557
   D44        2.71206   0.00000   0.00000  -0.00182  -0.00175   2.71031
   D45       -1.51284  -0.00000   0.00000   0.00238   0.00242  -1.51042
   D46       -1.48927   0.00000   0.00000   0.01069   0.01074  -1.47854
   D47        0.63072   0.00000   0.00000   0.00547   0.00548   0.63620
   D48        2.68901   0.00000   0.00000   0.00966   0.00965   2.69866
   D49        2.69206  -0.00000   0.00000  -0.00216  -0.00210   2.68995
   D50       -1.47113  -0.00000   0.00000  -0.00739  -0.00736  -1.47849
   D51        0.58716  -0.00000   0.00000  -0.00319  -0.00319   0.58397
   D52       -0.64598   0.00000   0.00000  -0.00162  -0.00164  -0.64763
   D53        1.45980   0.00000   0.00000   0.00253   0.00251   1.46231
   D54       -2.75327  -0.00000   0.00000  -0.00220  -0.00222  -2.75549
   D55       -2.76963   0.00000   0.00000  -0.00184  -0.00185  -2.77149
   D56       -0.66385  -0.00000   0.00000   0.00231   0.00230  -0.66155
   D57        1.40626  -0.00000   0.00000  -0.00243  -0.00243   1.40383
   D58        1.45432   0.00000   0.00000  -0.00335  -0.00336   1.45096
   D59       -2.72308   0.00000   0.00000   0.00080   0.00080  -2.72229
   D60       -0.65297   0.00000   0.00000  -0.00393  -0.00393  -0.65690
         Item               Value     Threshold  Converged?
 Maximum Force            0.051790     0.000450     NO 
 RMS     Force            0.007415     0.000300     NO 
 Maximum Displacement     0.223641     0.001800     NO 
 RMS     Displacement     0.050817     0.001200     NO 
 Predicted change in Energy=-9.711277D-04
 GradGradGradGradGradGradGradGradGradGradGradGradGradGradGradGradGradGrad

                          Input orientation:                          
 ---------------------------------------------------------------------
 Center     Atomic      Atomic             Coordinates (Angstroms)
 Number     Number       Type             X           Y           Z
 ---------------------------------------------------------------------
      1         14           0       -0.235451   -0.160103   -0.082100
      2          8           0        0.916331   -0.890678   -1.204161
      3          8           0       -1.312826    0.528274    1.147160
      4          8           0       -1.639183   -0.724109   -0.960811
      5          8           0       -0.023613    1.345827   -0.861095
      6          8           0        1.807585    0.890531    1.125130
      7          8           0        0.135995   -1.435811    1.034498
      8          6           0        1.802091    2.087032    0.535664
      9          1           0        2.824776    2.561586    0.390433
     10          1           0        1.213090    2.875564    1.093428
     11          6           0        1.189262    2.008142   -0.873270
     12          1           0        1.908358    1.491457   -1.534263
     13          1           0        1.035861    3.027917   -1.278221
     14          6           0        1.351775   -2.043856    0.775511
     15          1           0        2.168460   -1.465111    1.227028
     16          1           0        1.361833   -3.071359    1.179801
     17          6           0        1.505944   -2.045365   -0.749400
     18          1           0        2.571283   -2.090151   -1.038832
     19          1           0        1.013253   -2.945847   -1.175991
     20          6           0       -2.835651   -0.371726   -0.367696
     21          1           0       -3.587600   -0.088135   -1.126945
     22          1           0       -3.257509   -1.218364    0.209970
     23          6           0       -2.540515    0.791806    0.591003
     24          1           0       -2.542015    1.741437    0.021143
     25          1           0       -3.321757    0.867765    1.369265
 ---------------------------------------------------------------------
                    Distance matrix (angstroms):
                    1          2          3          4          5
     1  Si   0.000000
     2  O    1.766172   0.000000
     3  O    1.773606   3.537128   0.000000
     4  O    1.749485   2.572473   2.473563   0.000000
     5  O    1.708664   2.450132   2.522608   2.627669   0.000000
     6  O    2.595233   3.064740   3.141445   4.340325   2.739648
     7  O    1.735568   2.432630   2.443237   2.763880   3.369906
     8  C    3.095614   3.560663   3.536434   4.688744   2.415268
     9  H    4.122604   4.254764   4.671909   5.705136   3.340316
    10  H    3.563062   4.421715   3.448610   5.031204   2.773030
    11  C    2.712387   2.930382   3.540140   3.933569   1.381983
    12  H    3.071212   2.601471   4.300439   4.221685   2.051067
    13  H    3.634612   3.921117   4.200835   4.618908   2.031232
    14  C    2.608316   2.332066   3.722106   3.701671   4.007509
    15  H    3.032434   2.794365   4.012395   4.453523   4.131201
    16  H    3.552341   3.261459   4.484665   4.370114   5.059274
    17  C    2.651784   1.373954   4.262161   3.417928   3.721855
    18  H    3.538104   2.050594   5.169237   4.427209   4.309411
    19  H    3.242874   2.057646   4.783011   3.466675   4.426367
    20  C    2.624384   3.878963   2.328903   1.381121   3.331815
    21  H    3.511948   4.575526   3.275074   2.056306   3.850835
    22  H    3.215285   4.419060   2.776844   2.057668   4.263841
    23  C    2.583122   4.243012   1.373310   2.349155   2.958095
    24  H    2.991112   4.515480   2.061695   2.803259   2.697629
    25  H    3.562058   5.260801   2.049485   3.285479   4.010087
                    6          7          8          9         10
     6  O    0.000000
     7  O    2.866059   0.000000
     8  C    1.333835   3.928758   0.000000
     9  H    2.089709   4.860406   1.136739   0.000000
    10  H    2.072387   4.444274   1.131285   1.786145   0.000000
    11  C    2.371705   4.075508   1.538467   2.139661   2.149626
    12  H    2.728304   4.278867   2.156525   2.385257   3.050232
    13  H    3.307578   5.107181   2.182327   2.490398   2.383137
    14  C    2.990087   1.383804   4.162277   4.850579   4.931633
    15  H    2.385301   2.041774   3.637297   4.164725   4.446577
    16  H    3.987261   2.049099   5.217062   5.873106   5.949410
    17  C    3.496331   2.330367   4.337718   4.925701   5.262824
    18  H    3.761706   3.264581   4.529851   4.872957   5.572212
    19  H    4.543558   2.817100   5.374188   6.005590   6.251322
    20  C    5.038002   3.453854   5.326369   6.420242   5.391854
    21  H    5.927702   4.511455   6.045196   7.102255   6.063019
    22  H    5.562385   3.499000   6.052378   7.163433   6.125929
    23  C    4.381896   3.510367   4.531987   5.653202   4.322503
    24  H    4.567477   4.277094   4.388101   5.441641   4.066553
    25  H    5.135199   4.168283   5.332478   6.450349   4.967110
                   11         12         13         14         15
    11  C    0.000000
    12  H    1.104976   0.000000
    13  H    1.107907   1.785362   0.000000
    14  C    4.377623   4.259493   5.480921   0.000000
    15  H    4.175353   4.053847   5.267481   1.098084   0.000000
    16  H    5.481443   5.337052   6.584018   1.104225   1.798029
    17  C    4.067745   3.645141   5.122383   1.532686   2.163768
    18  H    4.328209   3.675981   5.348780   2.186592   2.384757
    19  H    4.966350   4.540842   5.974681   2.176360   3.049849
    20  C    4.703117   5.228571   5.232135   4.651610   5.364678
    21  H    5.222753   5.732938   5.577549   5.642837   6.369418
    22  H    5.599779   6.088651   6.219215   4.716648   5.525978
    23  C    4.187459   4.979833   4.613530   4.819226   5.260480
[...]
 082,0.02364202,-0.00348090,-0.02511747,-0.00002658,-0.00080371,0.00109
 574,0.00010331,0.00014826,-0.00020767,-0.00008791,0.00035176,-0.000119
 75,0.00090399,0.00079425,0.00008990,-0.00008800,0.00004421,-0.00028030
 ,-0.00015038,-0.00027789,-0.00004750,0.00424671,-0.01677716,-0.1695076
 1,0.00228684,-0.00084474,-0.01469370,-0.00302346,-0.00391706,-0.005947
 70,-0.02493997,0.03235738,0.46015798,0.00281737,-0.00440098,-0.0056554
 7,-0.01889963,0.02158810,0.00072980,-0.00041319,0.00038117,0.00028379,
 -0.00227051,0.00055747,0.00035500,0.00047590,0.00182155,0.00004876,0.0
 0085990,0.00052692,0.00017189,0.00126790,0.00024034,0.00159222,-0.0003
 0622,-0.00038249,0.00018132,0.00037041,0.00024030,-0.00009011,0.000017
 83,0.00009889,0.00004065,-0.00077278,-0.00035456,0.00009991,-0.0000309
 2,-0.00005301,-0.00004934,0.00006573,0.00027138,-0.00001109,-0.0029778
 9,-0.00243791,-0.00179353,0.00141431,0.00054772,0.00048881,-0.00032913
 ,0.00019488,0.00127500,-0.24459313,-0.01075324,0.06638151,0.27982942,-
 0.00105676,0.00105088,0.00505265,0.03910257,-0.01272160,-0.00776799,-0
 .00000483,-0.00003663,-0.00021668,0.00196587,-0.00000279,-0.00038364,-
 0.00036140,-0.00148945,-0.00013594,-0.00042781,0.00022271,-0.00009029,
 0.00042594,0.00150242,-0.00049396,0.00005064,-0.00008746,0.00015432,-0
 .00006946,-0.00003016,-0.00001219,-0.00002299,0.00009850,0.00001603,0.
 00076066,0.00023583,-0.00026339,-0.00017132,0.00016965,0.00014375,-0.0
 0009708,-0.00007195,0.00005694,0.00044345,0.00096151,-0.00287990,0.000
 23365,0.00037333,-0.00015629,0.00042010,-0.00012383,-0.00070170,-0.015
 32652,-0.04709068,0.00238764,-0.00254557,0.05691796,-0.00014391,0.0019
 1145,-0.00339176,-0.01407360,0.00403448,0.00718594,0.00057141,-0.00048
 001,0.00024344,0.00009635,-0.00001554,0.00042873,-0.00012048,0.0000234
 9,0.00016420,-0.00049359,-0.00015354,0.00018374,0.00299274,-0.00273269
 ,-0.00651845,0.00007015,0.00004283,-0.00006211,-0.00009979,-0.00009570
 ,0.00005075,-0.00002233,0.00001500,-0.00000736,0.00003649,0.00000472,-
 0.00000356,0.00003758,-0.00002710,0.00000344,-0.00000669,-0.00002864,-
 0.00000537,0.03046879,-0.00044163,-0.00346440,-0.00025719,-0.00046200,
 0.00127828,-0.00060724,0.00126579,-0.00110734,0.06277708,0.00108164,-0
 .07082333,-0.06934279,-0.00156478,0.07148722,-0.00027032,0.00157375,-0
 .00008192,0.01314013,0.01712010,0.00679728,0.00020260,-0.00011946,-0.0
 0000813,0.00088497,-0.00012414,-0.00009087,-0.00010583,0.00050634,0.00
 003140,0.00029325,-0.00031545,0.00008307,0.00172769,-0.00106513,-0.000
 59080,-0.00005989,0.00030890,-0.00006565,-0.00002028,-0.00002098,0.000
 01887,0.00006753,-0.00009504,-0.00002843,-0.00023224,0.00004482,0.0000
 4876,-0.00000739,-0.00000744,-0.00003716,0.00002027,-0.00005489,0.0000
 0879,-0.00049634,0.00073620,0.00092859,0.00116520,0.00084510,-0.000300
 97,0.00047317,0.00081192,-0.00095463,-0.10290919,-0.07854985,-0.036800
 64,-0.01669979,-0.02358987,-0.01169575,0.10281953,-0.00954383,0.000496
 46,0.00712812,0.00824165,-0.04833503,-0.00269064,0.00080902,0.00004417
 ,-0.00021032,0.00197979,0.00084047,0.00010839,0.00132149,-0.00288381,-
 0.00036300,-0.00043982,-0.00072262,-0.00073539,0.00117467,0.00134336,-
 0.00128920,0.00016766,0.00077086,-0.00006521,-0.00029117,-0.00017954,0
 .00004939,0.00009093,-0.00028524,-0.00016316,0.00072164,0.00091261,0.0
 0004116,0.00015799,0.00030466,-0.00014339,0.00002705,-0.00038129,0.000
 00265,-0.00297425,-0.00120658,0.00104669,0.00032751,0.00144574,-0.0006
 3201,0.00014559,0.00220624,-0.00077452,-0.07872052,-0.16107004,-0.0650
 9531,-0.00530790,-0.00002930,-0.00226485,0.08210743,0.20668723,-0.0003
 2212,0.00045593,-0.00063698,0.00491588,0.00980968,0.01085352,0.0002830
 5,-0.00012024,0.00007306,0.00043910,0.00012848,0.00010127,-0.00006342,
 0.00025035,0.00012437,0.00017257,-0.00082765,0.00046874,0.00181191,0.0
 0103381,0.00196670,0.00009144,0.00045649,-0.00029817,-0.00013308,-0.00
 010489,0.00007476,0.00005825,-0.00020173,-0.00000927,-0.00008234,-0.00
 004385,0.00000921,-0.00000050,-0.00002153,0.00001262,0.00002748,-0.000
 04911,0.00003054,-0.02179906,-0.02525139,-0.01451196,0.00132804,0.0002
 6191,-0.00673840,-0.00008215,0.00082051,0.00121804,-0.03488965,-0.0594
 5428,-0.08189433,0.00550610,0.00672803,0.00439263,0.04279207,0.0661279
 3,0.08486754,-0.04659824,-0.01144356,-0.01877226,0.00208060,-0.0004763
 0,-0.00001998,-0.03777257,-0.01116565,-0.02198647,-0.22219348,0.026265
 75,0.04974145,0.00485936,0.00502547,0.00099895,0.00035974,0.00096679,0
 .00059685,0.00389126,-0.00095220,0.00364785,0.00028931,-0.00069937,-0.
 00025525,0.00054575,0.00027637,0.00009429,-0.00020516,0.00046271,0.000
 23054,-0.00210004,-0.00097138,0.00119486,0.00027294,-0.00009395,-0.000
 16172,0.00027521,0.00068850,-0.00016625,-0.00132394,0.00111905,0.00047
 721,0.00056454,-0.00013268,0.00008802,0.00018699,-0.00057714,0.0002135
 6,-0.00146799,0.00094006,-0.00035849,0.00056618,-0.00002431,-0.0000769
 5,-0.00016602,-0.00013885,-0.00006952,0.54476385,0.00042379,0.00637995
 ,0.00689436,-0.00049795,0.00155123,0.00009990,-0.00073213,0.00582500,-
 0.00859469,0.04447210,-0.08471637,-0.01783289,-0.00096089,-0.00218536,
 -0.00095900,0.00020200,-0.00034650,-0.00004586,-0.00047930,-0.00087877
 ,0.00010512,-0.00015271,0.00012876,0.00005353,-0.00002959,-0.00000112,
 -0.00002645,0.00004857,-0.00012247,-0.00003480,0.00019470,-0.00039973,
 -0.00027582,0.00010049,0.00009517,-0.00002014,-0.00007526,-0.00009306,
 0.00001396,0.00029948,-0.00028061,-0.00010054,-0.00014454,0.00005038,0
 .00000096,0.00005880,-0.00003817,-0.00000968,-0.00043763,0.00013405,0.
 00002399,-0.00021981,0.00010079,-0.00004075,-0.00013586,-0.00006263,-0
 .00003925,0.01243313,0.49368321,0.00267136,0.00718410,0.01146058,-0.00
 386908,0.00044059,0.00103970,-0.02514465,-0.01600229,-0.03042745,0.071
 61712,-0.02189916,-0.10704673,-0.00151446,-0.00211674,-0.00067560,-0.0
 0013159,-0.00041966,-0.00024665,-0.00127339,0.00034540,-0.00309466,-0.
 00019921,0.00044395,0.00017516,-0.00013655,-0.00009504,-0.00007143,0.0
 0014409,-0.00027868,-0.00015656,0.00063397,0.00018087,-0.00051640,0.00
 003347,0.00004661,-0.00000307,-0.00009359,-0.00019459,0.00005424,0.000
 42214,-0.00050761,-0.00002026,-0.00019531,0.00007250,-0.00004368,-0.00
 005175,0.00020534,-0.00012766,0.00067605,-0.00100781,0.00049042,-0.000
 39746,0.00024447,0.00001661,0.00004744,0.00019308,-0.00001242,0.039454
 13,-0.05145534,0.50195344,0.00506742,0.00575300,0.00352313,-0.00217504
 ,0.00026585,0.00035716,0.00023619,-0.00150710,-0.00152739,-0.04220759,
 0.00971401,-0.01407485,-0.00071664,-0.00128097,0.00034289,-0.00023548,
 -0.00048319,0.00000965,-0.00164293,0.00067548,-0.00124459,0.00001802,0
 .00040741,-0.00012964,-0.00017941,-0.00011772,0.00003953,0.00006406,-0
 .00013378,-0.00004988,0.00044206,0.00024310,-0.00015379,-0.00006010,0.
 00005850,0.00002982,-0.00006343,-0.00022884,0.00005632,0.00049972,-0.0
 0033336,-0.00017378,-0.00021157,0.00005273,-0.00001868,-0.00008851,0.0
 0019879,-0.00007179,0.00037286,-0.00078565,0.00017567,-0.00028973,0.00
 015991,0.00004847,0.00008892,0.00019566,0.00003168,-0.11974285,0.03211
 226,-0.09623547,0.15473320,-0.00165818,-0.00285366,-0.00275982,0.00070
 390,-0.00003549,-0.00008610,-0.00333956,-0.00221396,-0.00379057,0.0139
 2526,0.00146238,0.00113435,0.00022654,0.00031820,0.00019383,-0.0000098
 5,0.00015250,0.00006787,0.00025870,0.00026087,0.00026778,0.00002926,-0
 .00008929,-0.00001034,0.00003839,0.00002119,0.00000383,-0.00001693,0.0
 0005724,0.00002039,-0.00013058,-0.00009605,0.00006884,0.00000853,-0.00
 001845,0.00000007,0.00000856,0.00005249,-0.00000957,-0.00016163,0.0000
 9847,0.00001659,0.00005588,-0.00001666,0.00000283,-0.00000202,-0.00002
 899,0.00002136,-0.00013821,0.00024036,-0.00006161,0.00009775,-0.000042
 53,-0.00001156,-0.00002555,-0.00004305,0.00000251,0.03503721,-0.067931
 61,0.04777939,-0.04416845,0.06913854,0.00332753,-0.00103421,-0.0022035
 3,0.00002435,0.00017131,0.00007533,-0.00410482,-0.00466085,-0.00230581
 ,0.01061169,-0.00502928,0.01719864,-0.00059763,-0.00053253,0.00055074,
 -0.00031178,-0.00025228,0.00012558,-0.00067446,0.00048507,0.00022084,0
 .00007892,0.00029241,-0.00016244,-0.00015232,-0.00009624,0.00005316,0.
 00002769,-0.00004596,-0.00001721,0.00031065,0.00021561,-0.00007333,-0.
 00010121,0.00001407,0.00005324,-0.00003551,-0.00014466,0.00004874,0.00
 029548,-0.00014497,-0.00009864,-0.00009103,-0.00000368,0.00000008,-0.0
 0004920,0.00010874,-0.00001525,0.00002486,-0.00009930,-0.00004959,-0.0
 0006560,-0.00000270,0.00004187,0.00002534,0.00006158,0.00002829,-0.098
 49758,0.04495494,-0.17321281,0.10977997,-0.05103571,0.18171068,0.00473
 642,0.00074752,0.00756605,-0.00150615,0.00103663,-0.00042744,0.0012968
 8,0.00020304,-0.00087621,-0.03585414,-0.01952467,0.02310107,-0.0015249
 5,-0.00159421,-0.00040468,-0.00012710,-0.00003622,-0.00020179,0.000003
 27,0.00061298,-0.00086894,-0.00003489,0.00006233,0.00009951,-0.0001325
 3,-0.00004226,-0.00003483,0.00003178,-0.00006320,-0.00004107,0.0006007
 0,0.00012631,-0.00029977,-0.00008314,0.00004046,0.00005216,-0.00009224
 ,-0.00015925,0.00003437,-0.00000610,0.00001683,0.00007855,0.00000030,-
 0.00001890,-0.00001407,-0.00003326,0.00011803,-0.00008460,0.00017523,-
 0.00084317,0.00020532,-0.00018931,0.00015167,-0.00003319,0.00007346,0.
 00021595,0.00005616,-0.06823623,-0.05790771,0.02477803,0.00807696,0.01
 379105,-0.00887959,0.09183813,0.00302115,0.00012294,0.00174151,-0.0006
 5426,0.00037579,-0.00005392,-0.00039112,0.00293346,-0.00117818,-0.0044
 4407,0.01639684,-0.00219485,-0.00078787,-0.00023472,-0.00002111,-0.000
 18660,0.00004031,-0.00014263,-0.00052035,0.00052238,-0.00064598,0.0000
 8241,0.00000511,0.00001847,-0.00013368,-0.00004985,0.00000727,-0.00001
 023,0.00001141,-0.00000270,0.00044844,0.00023973,-0.00013984,-0.000114
 46,0.00001738,0.00005761,-0.00002427,-0.00006682,0.00001053,0.00013723
 ,-0.00013475,-0.00001043,-0.00005499,-0.00000441,-0.00001102,-0.000052
 22,0.00014471,-0.00005147,0.00020459,-0.00042375,0.00010832,-0.0000992
 9,0.00005258,0.00000647,0.00005088,0.00012463,0.00003801,-0.05687380,-
 0.19024672,0.07776912,-0.00206200,-0.00794240,0.00498772,0.06766273,0.
 20516955,-0.00429496,-0.00132451,-0.00445039,0.00098425,-0.00058392,0.
 00016669,0.00119333,0.00167467,0.00132316,0.02267718,0.00554811,-0.004
 39195,0.00089904,0.00104380,0.00019608,0.00013096,0.00012387,0.0001212
 0,0.00055981,-0.00041644,0.00068766,0.00002259,-0.00014396,-0.00005592
 ,0.00010327,0.00005209,0.00001619,-0.00003852,0.00008239,0.00004713,-0
 .00042583,-0.00009895,0.00021255,0.00003960,-0.00002607,-0.00003007,0.
 00005937,0.00010509,-0.00002815,-0.00018553,0.00018652,0.00004763,0.00
 007516,-0.00001407,0.00000746,0.00004252,-0.00013294,0.00006205,-0.000
 15325,0.00060089,-0.00012310,0.00013091,-0.00009922,0.00000038,-0.0000
 5860,-0.00016496,-0.00005133,0.02782148,0.08238714,-0.09627956,0.00475
 304,0.02218727,-0.01203714,-0.04641648,-0.08939104,0.10554945,-0.03919
 944,0.02216292,0.02499433,-0.00018225,-0.00114862,-0.00148509,-0.23326
 546,0.03973331,-0.05782699,-0.02289378,0.02511810,0.01462899,0.0038150
 1,0.00398777,-0.00562905,0.00163666,0.00098884,-0.00055730,0.00316207,
 -0.00347981,-0.00092692,-0.00053365,-0.00138996,0.00073541,0.00073806,
 0.00039321,-0.00025259,-0.00018218,0.00019910,0.00013685,-0.00197661,-
 0.00076315,-0.00052382,0.00080397,-0.00001193,-0.00037093,0.00042673,0
 .00078035,-0.00030409,-0.00088675,0.00100871,0.00029710,0.00045897,-0.
 00002492,-0.00002018,0.00024239,-0.00058107,0.00008281,0.00018554,0.00
 033216,0.00017158,0.00022751,-0.00003421,-0.00026813,-0.00004085,-0.00
 040078,-0.00012710,-0.06232804,-0.02091909,-0.01261669,-0.00182321,-0.
 01556203,-0.01195973,-0.00058552,-0.00531118,-0.00612028,0.54291269,0.
 01523855,-0.00169596,-0.00710415,-0.00093356,-0.00009755,0.00022687,0.
 02885512,-0.07439102,0.01293507,0.01226160,-0.00699937,-0.01576027,-0.
 00003856,-0.00351292,0.00398129,-0.00107535,-0.00109700,0.00079761,0.0
 0160775,-0.00116519,-0.00039204,0.00014599,0.00151644,-0.00057094,-0.0
 0016977,-0.00029893,0.00013952,0.00024195,-0.00039314,-0.00020104,-0.0
 0014611,-0.00005547,0.00040637,0.00003937,-0.00005416,0.00000128,-0.00
 021683,-0.00037552,0.00018479,0.00065207,-0.00121788,-0.00031505,-0.00
 023744,0.00004996,0.00000360,0.00009183,0.00002860,-0.00005435,0.00013
 278,-0.00029160,0.00009792,-0.00014607,0.00006626,0.00000502,0.0000420
 2,0.00001470,0.00002432,-0.01155745,-0.13772798,-0.03884523,0.00316763
 ,0.00846449,0.01333835,-0.00421974,-0.02417119,-0.01866127,-0.02886395
 ,0.50736706,0.00181418,0.00095038,0.01748513,-0.00037543,0.00014869,-0
 .00076784,-0.07872029,0.01765498,-0.11642351,0.01147175,-0.02424272,-0
 .02825571,0.00204340,0.00387540,-0.00579666,0.00095721,0.00097163,-0.0
 0048628,0.00323267,-0.00410175,-0.00066478,-0.00026210,-0.00118147,0.0
 0051069,0.00029196,0.00029715,-0.00018742,-0.00015289,0.00026909,0.000
 10800,-0.00038756,-0.00062375,-0.00051477,0.00026779,0.00008438,-0.000
 12041,0.00023636,0.00049991,-0.00023784,-0.00107025,-0.00003448,0.0005
 8352,0.00023604,-0.00001660,0.00000094,0.00039351,-0.00046061,-0.00001
 287,0.00003636,0.00009373,0.00024326,0.00005812,0.00001426,-0.00015343
 ,-0.00006078,-0.00014726,-0.00008749,0.00185266,-0.04135477,-0.1006012
 0,-0.00489059,-0.01436224,-0.01097328,0.00362194,0.01441179,0.00848513
 ,-0.06264778,-0.03390085,0.50096457,0.00253420,0.00169562,-0.00569398,
 0.00006119,-0.00040129,0.00025184,-0.01349829,0.03342144,-0.02195636,0
 .00140646,0.00023165,0.00035997,0.00019181,-0.00079846,0.00047567,-0.0
 0008560,-0.00043121,0.00032473,-0.00157129,0.00106718,0.00041721,-0.00
 004029,0.00039363,-0.00020660,0.00000681,-0.00006066,0.00005536,0.0000
 6982,-0.00008855,-0.00001772,-0.00045583,-0.00049023,0.00002928,0.0002
 6482,0.00004194,-0.00010828,-0.00000436,0.00000728,0.00001344,0.000235
 75,0.00004983,-0.00002609,-0.00011665,0.00003868,-0.00001243,-0.000109
 07,0.00011691,0.00001481,-0.00011161,0.00009713,-0.00014043,-0.0000166
 6,-0.00001543,0.00007183,0.00001637,-0.00001684,0.00001934,-0.00076027
 ,-0.00588037,0.00268216,0.00024235,-0.00008983,0.00014178,0.00059093,-
 0.00112249,-0.00142338,-0.04785206,-0.01580247,0.01367689,0.05940437,-
 0.00408624,-0.00062482,0.00575042,0.00029147,0.00024277,-0.00028073,0.
 01981134,-0.00446642,0.01039292,0.00084918,0.00222567,-0.00115177,-0.0
 0061519,0.00167486,-0.00175999,0.00034911,0.00068489,-0.00037192,0.001
 46739,-0.00084240,-0.00031251,-0.00005583,-0.00071937,0.00029276,0.000
 09989,0.00014647,-0.00008636,-0.00009541,0.00020309,0.00009666,0.00006
 624,0.00012384,-0.00012351,-0.00002919,0.00000699,-0.00000730,0.000115
 24,0.00018450,-0.00009366,-0.00046363,0.00016310,0.00009275,0.00016020
 ,-0.00004019,0.00001724,0.00009740,-0.00013700,-0.00000187,-0.00000269
 ,0.00001597,0.00006239,0.00009501,-0.00000957,-0.00006785,-0.00002340,
 0.00000571,-0.00001799,-0.00590521,-0.02342951,0.01324484,-0.00093468,
 0.00123629,-0.00081410,-0.00074414,-0.00358721,-0.00370612,-0.01490600
 ,-0.21278921,0.08032223,0.00627946,0.23873284,0.00364680,-0.00096153,-
 0.00512184,-0.00009662,-0.00003880,0.00027357,-0.01736530,0.01754813,-
 0.00697065,0.00020185,0.00206854,0.00137209,0.00037013,-0.00133011,0.0
 0071430,-0.00031771,-0.00056273,0.00021366,-0.00127522,0.00096165,0.00
 031968,-0.00002091,0.00067999,-0.00015274,-0.00007527,-0.00011205,0.00
 004316,0.00012720,-0.00022081,-0.00010590,0.00014936,0.00012733,0.0002
 1395,-0.00007974,-0.00002547,0.00002248,-0.00008523,-0.00017415,0.0000
 8121,0.00036446,-0.00008061,-0.00003382,-0.00011075,0.00002181,-0.0000
 1083,-0.00009834,0.00013278,-0.00000436,-0.00003851,-0.00004141,-0.000
 07541,-0.00005559,0.00000795,0.00006926,0.00002518,0.00004827,0.000030
 84,-0.00320279,-0.01980849,0.00868468,0.00054047,0.00065586,0.00174238
 ,-0.00054548,-0.00455391,-0.00126725,0.01168885,0.08652216,-0.09723540
 ,0.00054049,-0.10146834,0.10856407,0.00305747,-0.00452966,-0.00697972,
 -0.00030702,0.00045077,0.00031432,-0.04461019,0.01078435,0.01301854,0.
 00199473,-0.00026159,-0.00023476,-0.00157346,-0.00123289,0.00186558,-0
 .00062809,-0.00039992,-0.00004295,-0.00162315,0.00185072,-0.00001624,0
 .00010648,0.00061303,-0.00006267,-0.00029214,-0.00020815,0.00004758,0.
 00010767,-0.00019328,-0.00009192,0.00097113,0.00039987,-0.00014833,-0.
 00022471,0.00002114,0.00008908,-0.00014901,-0.00031858,0.00011929,0.00
 068520,-0.00006620,-0.00021703,-0.00014570,-0.00002557,-0.00001095,-0.
 00019675,0.00031156,-0.00002275,0.00010563,-0.00028216,-0.00000194,-0.
 00012354,0.00003307,0.00007074,0.00003507,0.00014995,0.00003591,0.0042
 3911,-0.00177250,-0.00130077,-0.00040527,0.00112176,0.00087221,0.00098
 150,0.00123546,-0.00037568,-0.14285981,0.00093065,0.10837686,-0.000402
 91,-0.00182033,0.00571265,0.18125774,-0.00080263,-0.00133941,-0.000192
 96,0.00032996,0.00013847,0.00006437,0.00816806,0.00183315,-0.00458375,
 0.00137499,-0.00341070,-0.00389828,-0.00037840,0.00082971,-0.00040090,
 0.00001491,0.00013993,-0.00006348,0.00036557,-0.00029771,0.00018836,-0
 .00002369,-0.00012053,0.00006235,-0.00000924,0.00001638,-0.00002211,-0
 .00001186,0.00003306,0.00001188,0.00020893,0.00029942,-0.00016159,-0.0
 0008304,-0.00001295,0.00002621,0.00005281,0.00001981,-0.00001576,-0.00
 008310,-0.00002232,0.00004502,0.00003120,-0.00001346,0.00000808,0.0000
 3701,-0.00004762,0.00000794,-0.00006444,0.00009732,-0.00001628,0.00003
 935,-0.00001649,-0.00000425,-0.00002040,0.00000228,-0.00000606,0.01779
 681,0.00051209,-0.01532811,-0.00096860,-0.00019087,-0.00073332,0.00036
 796,0.00070502,0.00077163,-0.00130776,-0.05117343,0.00083288,-0.018242
 89,0.00099869,0.02060395,-0.00679150,0.05102015,-0.00335734,-0.0001396
 5,-0.00193045,0.00065486,-0.00026163,0.00009746,-0.01324347,0.00025410
 ,0.01769179,0.00098498,-0.00511861,-0.00219766,0.00101372,0.00014393,0
 .00033089,0.00014119,0.00014419,0.00011370,0.00028093,0.00000756,0.000
 30804,0.00001663,-0.00016069,-0.00003572,0.00011900,0.00005185,0.00001
 270,-0.00004190,0.00008275,0.00004818,-0.00051355,-0.00036119,0.000178
 21,0.00011552,-0.00000914,-0.00003942,0.00002372,0.00012233,-0.0000235
 0,-0.00013995,0.00018061,-0.00003733,0.00006768,-0.00000285,0.00001086
 ,-0.00000042,-0.00008205,0.00004127,-0.00017343,0.00030729,-0.00011713
 ,0.00011720,-0.00003737,-0.00000939,-0.00003246,-0.00006802,-0.0000117
 6,0.01715539,0.00606459,-0.01133870,-0.00111735,-0.00029523,-0.0007005
 3,-0.00046503,-0.00075977,0.00179210,0.10890074,-0.00285899,-0.1658623
 5,0.01051044,-0.00000820,-0.01136714,-0.12101706,0.00280417,0.17304588
 \\0.00000537,-0.00000308,0.00000827,-0.00000051,0.00000050,-0.00000109
 ,0.00000332,-0.00000078,-0.00000238,-0.00000425,0.00000179,-0.00000032
 ,-0.00000091,0.00000447,-0.00000141,-0.00000675,-0.00001310,-0.0000030
 3,-0.00000385,-0.00000794,0.00000038,-0.00000036,-0.00000083,-0.000000
 76,0.00000069,-0.00000141,0.00000124,0.00000178,-0.00000186,0.00000190
 ,-0.00000099,-0.00000046,0.00000093,-0.00000038,0.00000148,0.00000014,
 0.00000086,0.00000091,0.00000163,-0.00000097,-0.00000232,-0.00000230,0
 .00000959,0.00001534,-0.00000148,-0.00000053,-0.00000123,-0.00000327,-
 0.00000179,0.00000176,-0.00000287,-0.00000076,-0.00000005,-0.00000269,
 -0.00000106,0.00000041,-0.00000303,-0.00000050,0.00000088,-0.00000168,
 -0.00000059,0.00000213,0.00000163,-0.00000017,0.00000054,0.00000059,0.
 00000147,0.00000250,0.00000499,0.00000004,0.00000075,0.00000290,0.0000
 0127,-0.00000041,0.00000172\\\@
 The archive entry for this job was punched.


 ROSE IS A RED
 TY COBB IS BLUE
 'CAUSE PETE JUST HIT
 NO. 4592.
 Job cpu time:       0 days 10 hours 52 minutes 28.8 seconds.
 Elapsed time:       0 days  2 hours 43 minutes 35.3 seconds.
 File lengths (MBytes):  RWF=    810 Int=      0 D2E=      0 Chk=     28 Scr=      1
 Normal termination of Gaussian 16 at Fri Feb  2 07:05:02 2024.
