 Entering Gaussian System, Link 0=/opt/software/gaussian/g16.c01/g16
 Initial command:
 /opt/software/gaussian/g16.c01/l1.exe "/scratch/arhender/17972469/Gau-19367.inp" -scrdir="/scratch/arhender/17972469/"
 Entering Link 1 = /opt/software/gaussian/g16.c01/l1.exe PID=     19368.
  
 Copyright (c) 1988-2019, Gaussian, Inc.  All Rights Reserved.
  
 This is part of the Gaussian(R) 16 program.  It is based on
 the Gaussian(R) 09 system (copyright 2009, Gaussian, Inc.),
 the Gaussian(R) 03 system (copyright 2003, Gaussian, Inc.),
 the Gaussian(R) 98 system (copyright 1998, Gaussian, Inc.),
 the Gaussian(R) 94 system (copyright 1995, Gaussian, Inc.),
 the Gaussian 92(TM) system (copyright 1992, Gaussian, Inc.),
 the Gaussian 90(TM) system (copyright 1990, Gaussian, Inc.),
 the Gaussian 88(TM) system (copyright 1988, Gaussian, Inc.),
 the Gaussian 86(TM) system (copyright 1986, Carnegie Mellon
 University), and the Gaussian 82(TM) system (copyright 1983,
 Carnegie Mellon University). Gaussian is a federally registered
 trademark of Gaussian, Inc.
  
 This software contains proprietary and confidential information,
 including trade secrets, belonging to Gaussian, Inc.
  
 This software is provided under written license and may be
 used, copied, transmitted, or stored only in accord with that
 written license.
  
 The following legend is applicable only to US Government
 contracts under FAR:
  
                    RESTRICTED RIGHTS LEGEND
  
 Use, reproduction and disclosure by the US Government is
 subject to restrictions as set forth in subparagraphs (a)
 and (c) of the Commercial Computer Software - Restricted
 Rights clause in FAR 52.227-19.
  
 Gaussian, Inc.
 340 Quinnipiac St., Bldg. 40, Wallingford CT 06492
  
  
 ---------------------------------------------------------------
 Warning -- This program may not be used in any manner that
 competes with the business of Gaussian, Inc. or will provide
 assistance to any competitor of Gaussian, Inc.  The licensee
 of this program is prohibited from giving any competitor of
 Gaussian, Inc. access to this program.  By using this program,
 the user acknowledges that Gaussian, Inc. is engaged in the
 business of creating and licensing software in the field of
 computational chemistry and represents and warrants to the
 licensee that it is not a competitor of Gaussian, Inc. and that
 it will not use this program in any manner prohibited above.
 ---------------------------------------------------------------
  

 Cite this work as:
 Gaussian 16, Revision C.01,
 M. J. Frisch, G. W. Trucks, H. B. Schlegel, G. E. Scuseria, 
 M. A. Robb, J. R. Cheeseman, G. Scalmani, V. Barone, 
 G. A. Petersson, H. Nakatsuji, X. Li, M. Caricato, A. V. Marenich, 
 J. Bloino, B. G. Janesko, R. Gomperts, B. Mennucci, H. P. Hratchian, 
 J. V. Ortiz, A. F. Izmaylov, J. L. Sonnenberg, D. Williams-Young, 
 F. Ding, F. Lipparini, F. Egidi, J. Goings, B. Peng, A. Petrone, 
 T. Henderson, D. Ranasinghe, V. G. Zakrzewski, J. Gao, N. Rega, 
 G. Zheng, W. Liang, M. Hada, M. Ehara, K. Toyota, R. Fukuda, 
 J. Hasegawa, M. Ishida, T. Nakajima, Y. Honda, O. Kitao, H. Nakai, 
 T. Vreven, K. Throssell, J. A. Montgomery, Jr., J. E. Peralta, 
 F. Ogliaro, M. J. Bearpark, J. J. Heyd, E. N. Brothers, K. N. Kudin, 
 V. N. Staroverov, T. A. Keith, R. Kobayashi, J. Normand, 
 K. Raghavachari, A. P. Rendell, J. C. Burant, S. S. Iyengar, 
 J. Tomasi, M. Cossi, J. M. Millam, M. Klene, C. Adamo, R. Cammi, 
 J. W. Ochterski, R. L. Martin, K. Morokuma, O. Farkas, 
 J. B. Foresman, and D. J. Fox, Gaussian, Inc., Wallingford CT, 2019.
 
 ******************************************
 Gaussian 16:  ES64L-G16RevC.01  3-Jul-2019
                20-Mar-2024 
 ******************************************
 %chk=PbiLmL_to_HbiL2_TSOpt_DirectNofreezing.chk
 %mem=1600MB
 %nprocs=4
 Will use up to    4 processors via shared memory.
 ------------------------------------------------------------------
 # opt=(calcall,ts,noeigen) freq wb97xd/def2tzvpp geom=connectivity
 ------------------------------------------------------------------
 1/5=1,10=4,11=1,18=20,26=3,38=1,57=2/1,3;
 2/9=110,12=2,17=6,18=5,40=1/2;
 3/5=44,7=202,11=2,25=1,30=1,71=2,74=-58,140=1/1,2,3;
 4//1;
 5/5=2,38=5/2;
 8/6=4,10=90,11=11/1;
 11/6=1,8=1,9=11,15=111,16=1/1,2,10;
 10/6=1/2;
 6/7=2,8=2,9=2,10=2,18=1,28=1/1;
 7/10=1,25=1/1,2,3,16;
 1/5=1,10=4,11=1,18=20,26=3/3(3);
 2/9=110/2;
 7/8=1,9=1,25=1,44=-1/16;
 99//99;
 2/9=110/2;
 3/5=44,7=202,11=2,25=1,30=1,71=2,74=-58,140=1/1,2,3;
 4/5=5,16=3,69=1/1;
 5/5=2,38=5/2;
 8/6=4,10=90,11=11/1;
 11/6=1,8=1,9=11,15=111,16=1/1,2,10;
 10/6=1/2;
 7/10=1,25=1/1,2,3,16;
 1/5=1,10=4,11=1,18=20,26=3/3(-8);
 2/9=110/2;
 6/7=2,8=2,9=2,10=2,18=1,19=2,28=1/1;
 7/8=1,9=1,25=1,44=-1/16;
 99//99;
 ----------------------------------------------------------------------
 Modify TS discovered for PmonoL1 to HBiL3 into potential PL3 to HL3 TS
  opt Unfreeze Result of previous job and optimize to a TS
 ----------------------------------------------------------------------
 Symbolic Z-matrix:
 Charge = -2 Multiplicity = 1
 Si                   -0.28548  -0.12738  -0.05062 
 O                     0.73388  -1.00099  -1.198 
 O                    -1.31554   0.65154   1.17764 
 O                    -1.74277  -0.57627  -0.91388 
 O                     0.08998   1.36762  -0.77865 
 O                     2.05985   0.72869   1.03334 
 O                     0.04638  -1.35738   1.11143 
 C                     2.15991   1.86919   0.35754 
 H                     3.21949   2.18186   0.07412 
 H                     1.75499   2.77474   0.90616 
 C                     1.39394   1.80469  -0.97663 
 H                     1.9311    1.11931  -1.65192 
 H                     1.36027   2.80424  -1.4514 
 C                    -2.90597  -0.1      -0.34182 
 H                    -3.61377   0.25344  -1.11398 
 H                    -3.42025  -0.89613   0.23265 
 C                    -2.50657   1.03357   0.61481 
 H                    -2.41294   1.9772    0.04175 
 H                    -3.28304   1.1898    1.38613 
 H                     0.99614  -1.45902   1.20746 
 H                     1.65768  -0.84281  -0.99025 
 
 Add virtual bond connecting atoms H9         and C8         Dist= 2.16D+00.

 GradGradGradGradGradGradGradGradGradGradGradGradGradGradGradGradGradGrad
 Berny optimization.
 Initialization pass.
                           ----------------------------
                           !    Initial Parameters    !
                           ! (Angstroms and Degrees)  !
 --------------------------                            --------------------------
 ! Name  Definition              Value          Derivative Info.                !
 --------------------------------------------------------------------------------
 ! R1    R(1,2)                  1.766          calculate D2E/DX2 analytically  !
 ! R2    R(1,3)                  1.7822         calculate D2E/DX2 analytically  !
 ! R3    R(1,4)                  1.7523         calculate D2E/DX2 analytically  !
 ! R4    R(1,5)                  1.7047         calculate D2E/DX2 analytically  !
 ! R5    R(1,7)                  1.7244         calculate D2E/DX2 analytically  !
 ! R6    R(2,21)                 0.96           calculate D2E/DX2 analytically  !
 ! R7    R(3,17)                 1.3716         calculate D2E/DX2 analytically  !
 ! R8    R(4,14)                 1.381          calculate D2E/DX2 analytically  !
 ! R9    R(5,11)                 1.3894         calculate D2E/DX2 analytically  !
 ! R10   R(6,8)                  1.3295         calculate D2E/DX2 analytically  !
 ! R11   R(7,20)                 0.96           calculate D2E/DX2 analytically  !
 ! R12   R(8,9)                  1.1405         calculate D2E/DX2 analytically  !
 ! R13   R(8,10)                 1.1336         calculate D2E/DX2 analytically  !
 ! R14   R(8,11)                 1.5398         calculate D2E/DX2 analytically  !
 ! R15   R(11,12)                1.102          calculate D2E/DX2 analytically  !
 ! R16   R(11,13)                1.1071         calculate D2E/DX2 analytically  !
 ! R17   R(14,15)                1.1055         calculate D2E/DX2 analytically  !
 ! R18   R(14,16)                1.1083         calculate D2E/DX2 analytically  !
 ! R19   R(14,17)                1.5361         calculate D2E/DX2 analytically  !
 ! R20   R(17,18)                1.108          calculate D2E/DX2 analytically  !
 ! R21   R(17,19)                1.1055         calculate D2E/DX2 analytically  !
 ! A1    A(2,1,4)               91.9047         calculate D2E/DX2 analytically  !
 ! A2    A(2,1,5)               91.6749         calculate D2E/DX2 analytically  !
 ! A3    A(2,1,7)               88.504          calculate D2E/DX2 analytically  !
 ! A4    A(3,1,4)               88.3274         calculate D2E/DX2 analytically  !
 ! A5    A(3,1,5)               92.1973         calculate D2E/DX2 analytically  !
 ! A6    A(3,1,7)               87.624          calculate D2E/DX2 analytically  !
 ! A7    A(4,1,5)              101.3873         calculate D2E/DX2 analytically  !
 ! A8    A(4,1,7)              108.0182         calculate D2E/DX2 analytically  !
 ! A9    A(5,1,7)              150.573          calculate D2E/DX2 analytically  !
 ! A10   A(1,2,21)             109.4712         calculate D2E/DX2 analytically  !
 ! A11   A(1,3,17)             109.9263         calculate D2E/DX2 analytically  !
 ! A12   A(1,4,14)             114.0844         calculate D2E/DX2 analytically  !
 ! A13   A(1,5,11)             122.9171         calculate D2E/DX2 analytically  !
 ! A14   A(1,7,20)             109.4712         calculate D2E/DX2 analytically  !
 ! A15   A(6,8,9)              115.558          calculate D2E/DX2 analytically  !
 ! A16   A(6,8,10)             114.3562         calculate D2E/DX2 analytically  !
 ! A17   A(6,8,11)             111.5352         calculate D2E/DX2 analytically  !
 ! A18   A(9,8,10)             103.4814         calculate D2E/DX2 analytically  !
 ! A19   A(9,8,11)             104.9702         calculate D2E/DX2 analytically  !
 ! A20   A(10,8,11)            105.9691         calculate D2E/DX2 analytically  !
 ! A21   A(5,11,8)             110.8898         calculate D2E/DX2 analytically  !
 ! A22   A(5,11,12)            110.4343         calculate D2E/DX2 analytically  !
 ! A23   A(5,11,13)            108.4563         calculate D2E/DX2 analytically  !
 ! A24   A(8,11,12)            108.3334         calculate D2E/DX2 analytically  !
 ! A25   A(8,11,13)            110.4194         calculate D2E/DX2 analytically  !
 ! A26   A(12,11,13)           108.2752         calculate D2E/DX2 analytically  !
 ! A27   A(4,14,15)            111.113          calculate D2E/DX2 analytically  !
 ! A28   A(4,14,16)            110.9667         calculate D2E/DX2 analytically  !
 ! A29   A(4,14,17)            107.0657         calculate D2E/DX2 analytically  !
 ! A30   A(15,14,16)           107.1336         calculate D2E/DX2 analytically  !
 ! A31   A(15,14,17)           111.4401         calculate D2E/DX2 analytically  !
 ! A32   A(16,14,17)           109.1443         calculate D2E/DX2 analytically  !
 ! A33   A(3,17,14)            106.0087         calculate D2E/DX2 analytically  !
 ! A34   A(3,17,18)            112.0912         calculate D2E/DX2 analytically  !
 ! A35   A(3,17,19)            111.2817         calculate D2E/DX2 analytically  !
 ! A36   A(14,17,18)           109.1689         calculate D2E/DX2 analytically  !
 ! A37   A(14,17,19)           110.8641         calculate D2E/DX2 analytically  !
 ! A38   A(18,17,19)           107.4481         calculate D2E/DX2 analytically  !
 ! A39   L(2,1,3,4,-1)         180.2321         calculate D2E/DX2 analytically  !
 ! A40   L(2,1,3,4,-2)         176.0014         calculate D2E/DX2 analytically  !
 ! D1    D(4,1,2,21)           174.5676         calculate D2E/DX2 analytically  !
 ! D2    D(5,1,2,21)            73.1122         calculate D2E/DX2 analytically  !
 ! D3    D(7,1,2,21)           -77.4498         calculate D2E/DX2 analytically  !
 ! D4    D(4,1,3,17)           -26.2206         calculate D2E/DX2 analytically  !
 ! D5    D(5,1,3,17)            75.1146         calculate D2E/DX2 analytically  !
 ! D6    D(7,1,3,17)          -134.3358         calculate D2E/DX2 analytically  !
 ! D7    D(2,1,4,14)           179.2255         calculate D2E/DX2 analytically  !
 ! D8    D(3,1,4,14)             3.2241         calculate D2E/DX2 analytically  !
 ! D9    D(5,1,4,14)           -88.6811         calculate D2E/DX2 analytically  !
 ! D10   D(7,1,4,14)            90.1796         calculate D2E/DX2 analytically  !
 ! D11   D(2,1,5,11)           -53.8874         calculate D2E/DX2 analytically  !
 ! D12   D(3,1,5,11)           125.0958         calculate D2E/DX2 analytically  !
 ! D13   D(4,1,5,11)          -146.1688         calculate D2E/DX2 analytically  !
 ! D14   D(7,1,5,11)            36.0368         calculate D2E/DX2 analytically  !
 ! D15   D(2,1,7,20)            54.3182         calculate D2E/DX2 analytically  !
 ! D16   D(3,1,7,20)          -126.6994         calculate D2E/DX2 analytically  !
 ! D17   D(4,1,7,20)           145.8349         calculate D2E/DX2 analytically  !
 ! D18   D(5,1,7,20)           -36.4388         calculate D2E/DX2 analytically  !
 ! D19   D(1,3,17,14)           39.6871         calculate D2E/DX2 analytically  !
 ! D20   D(1,3,17,18)          -79.3331         calculate D2E/DX2 analytically  !
 ! D21   D(1,3,17,19)          160.3106         calculate D2E/DX2 analytically  !
 ! D22   D(1,4,14,15)          139.5078         calculate D2E/DX2 analytically  !
 ! D23   D(1,4,14,16)         -101.404          calculate D2E/DX2 analytically  !
 ! D24   D(1,4,14,17)           17.6094         calculate D2E/DX2 analytically  !
 ! D25   D(1,5,11,8)           -57.8351         calculate D2E/DX2 analytically  !
 ! D26   D(1,5,11,12)           62.263          calculate D2E/DX2 analytically  !
 ! D27   D(1,5,11,13)         -179.2387         calculate D2E/DX2 analytically  !
 ! D28   D(6,8,11,5)            51.2621         calculate D2E/DX2 analytically  !
 ! D29   D(6,8,11,12)          -70.0801         calculate D2E/DX2 analytically  !
 ! D30   D(6,8,11,13)          171.5045         calculate D2E/DX2 analytically  !
 ! D31   D(9,8,11,5)           177.1084         calculate D2E/DX2 analytically  !
 ! D32   D(9,8,11,12)           55.7663         calculate D2E/DX2 analytically  !
 ! D33   D(9,8,11,13)          -62.6491         calculate D2E/DX2 analytically  !
 ! D34   D(10,8,11,5)          -73.7731         calculate D2E/DX2 analytically  !
 ! D35   D(10,8,11,12)         164.8848         calculate D2E/DX2 analytically  !
 ! D36   D(10,8,11,13)          46.4693         calculate D2E/DX2 analytically  !
 ! D37   D(4,14,17,3)          -36.5247         calculate D2E/DX2 analytically  !
 ! D38   D(4,14,17,18)          84.4033         calculate D2E/DX2 analytically  !
 ! D39   D(4,14,17,19)        -157.4185         calculate D2E/DX2 analytically  !
 ! D40   D(15,14,17,3)        -158.2176         calculate D2E/DX2 analytically  !
 ! D41   D(15,14,17,18)        -37.2896         calculate D2E/DX2 analytically  !
 ! D42   D(15,14,17,19)         80.8886         calculate D2E/DX2 analytically  !
 ! D43   D(16,14,17,3)          83.6599         calculate D2E/DX2 analytically  !
 ! D44   D(16,14,17,18)       -155.4121         calculate D2E/DX2 analytically  !
 ! D45   D(16,14,17,19)        -37.2339         calculate D2E/DX2 analytically  !
 --------------------------------------------------------------------------------
 Trust Radius=3.00D-01 FncErr=1.00D-07 GrdErr=1.00D-06 EigMax=2.50D+02 EigMin=1.00D-04
 Number of steps in this run=    116 maximum allowed number of steps=    126.
 Search for a saddle point of order  1.
 GradGradGradGradGradGradGradGradGradGradGradGradGradGradGradGradGradGrad

                          Input orientation:                          
 ---------------------------------------------------------------------
 Center     Atomic      Atomic             Coordinates (Angstroms)
 Number     Number       Type             X           Y           Z
 ---------------------------------------------------------------------
      1         14           0       -0.285477   -0.127377   -0.050621
      2          8           0        0.733876   -1.000989   -1.198003
      3          8           0       -1.315540    0.651536    1.177636
      4          8           0       -1.742770   -0.576272   -0.913877
      5          8           0        0.089980    1.367615   -0.778652
      6          8           0        2.059849    0.728690    1.033336
      7          8           0        0.046376   -1.357378    1.111431
      8          6           0        2.159913    1.869191    0.357540
      9          1           0        3.219489    2.181857    0.074117
     10          1           0        1.754992    2.774740    0.906158
     11          6           0        1.393938    1.804692   -0.976630
     12          1           0        1.931097    1.119306   -1.651920
     13          1           0        1.360271    2.804243   -1.451396
     14          6           0       -2.905970   -0.099999   -0.341819
     15          1           0       -3.613771    0.253436   -1.113983
     16          1           0       -3.420251   -0.896127    0.232646
     17          6           0       -2.506565    1.033570    0.614813
     18          1           0       -2.412943    1.977198    0.041750
     19          1           0       -3.283036    1.189802    1.386126
     20          1           0        0.996138   -1.459022    1.207459
     21          1           0        1.657682   -0.842806   -0.990249
 ---------------------------------------------------------------------
                    Distance matrix (angstroms):
                    1          2          3          4          5
     1  Si   0.000000
     2  O    1.766002   0.000000
     3  O    1.782232   3.546069   0.000000
     4  O    1.752262   2.528811   2.462613   0.000000
     5  O    1.704699   2.490129   2.513030   2.675062   0.000000
     6  O    2.721832   3.119113   3.379353   4.467043   2.751710
     7  O    1.724353   2.435807   2.427948   2.813013   3.316610
     8  C    3.183208   3.562475   3.772799   4.777837   2.413946
     9  H    4.199156   4.234037   4.911835   5.762588   3.344254
    10  H    3.674401   4.441430   3.742975   5.174567   2.755150
    11  C    2.722282   2.890767   3.648548   3.938510   1.389438
    12  H    3.005258   2.476899   4.331957   4.113027   2.052795
    13  H    3.642122   3.864760   4.325034   4.620138   2.032271
    14  C    2.636765   3.846208   2.324439   1.380985   3.364585
    15  H    3.514726   4.525779   3.269842   2.056478   3.882218
    16  H    3.240066   4.394829   2.778142   2.056882   4.297554
    17  C    2.593035   4.233933   1.371590   2.347737   2.965700
    18  H    2.993974   4.506557   2.062016   2.807590   2.703567
    19  H    3.575551   5.254795   2.050424   3.283512   4.011872
    20  H    2.235750   2.462686   3.130367   3.575043   3.571503
    21  H    2.273897   0.960000   3.971502   3.411736   2.718165
                    6          7          8          9         10
     6  O    0.000000
     7  O    2.900319   0.000000
     8  C    1.329457   3.930157   0.000000
     9  H    2.092023   4.865270   1.140522   0.000000
    10  H    2.072543   4.476148   1.133562   1.785652   0.000000
    11  C    2.375117   4.021767   1.539769   2.139850   2.148545
    12  H    2.716571   4.162000   2.156992   2.401702   3.052087
    13  H    3.312284   5.060977   2.187693   2.484199   2.390551
    14  C    5.218921   3.522681   5.479962   6.549894   5.616595
    15  H    6.084966   4.576447   6.173449   7.198877   6.265905
    16  H    5.771710   3.605900   6.229030   7.320196   6.380597
    17  C    4.595677   3.532813   4.747680   5.865033   4.612746
    18  H    4.748461   4.279236   4.585019   5.636242   4.330699
    19  H    5.374338   4.201020   5.580793   6.707337   5.303218
    20  H    2.438828   0.960000   3.626808   4.414040   4.311772
    21  H    2.593499   2.697805   3.069805   3.566610   4.085642
                   11         12         13         14         15
    11  C    0.000000
    12  H    1.101958   0.000000
    13  H    1.107086   1.790270   0.000000
    14  C    4.745529   5.157547   5.278882   0.000000
    15  H    5.244274   5.637789   5.600139   1.105503   0.000000
    16  H    5.650946   6.020838   6.275518   1.108294   1.781111
    17  C    4.282668   4.983801   4.728311   1.536115   2.196190
    18  H    3.944515   4.740800   4.141332   2.169089   2.397720
    19  H    5.275869   6.035054   5.676112   2.188963   2.690114
    20  H    3.947191   3.962067   5.037612   4.412896   5.438094
    21  H    2.660638   2.088647   3.688099   4.668955   5.385654
                   16         17         18         19         20
    16  H    0.000000
    17  C    2.169010   0.000000
    18  H    3.050755   1.107971   0.000000
    19  H    2.387560   1.105549   1.784489   0.000000
    20  H    4.557587   4.339720   4.978786   5.035823   0.000000
    21  H    5.223382   4.841277   5.058402   5.847166   2.376402
                   21
    21  H    0.000000
 Stoichiometry    C4H10O6Si(2-)
 Framework group  C1[X(C4H10O6Si)]
 Deg. of freedom    57
 Full point group                 C1      NOp   1
 Largest Abelian subgroup         C1      NOp   1
 Largest concise Abelian subgroup C1      NOp   1
                         Standard orientation:                         
 ---------------------------------------------------------------------
 Center     Atomic      Atomic             Coordinates (Angstroms)
 Number     Number       Type             X           Y           Z
 ---------------------------------------------------------------------
      1         14           0        0.227235    0.430514   -0.033677
      2          8           0       -0.515420    1.584954   -1.144755
      3          8           0        1.007333   -0.638215    1.160315
      4          8           0        1.745163    0.476562   -0.907858
      5          8           0       -0.557713   -0.879559   -0.791018
      6          8           0       -2.255494    0.236354    1.064834
      7          8           0        0.262359    1.672618    1.161872
      8          6           0       -2.676359   -0.812009    0.363932
      9          1           0       -3.783272   -0.807896    0.089132
     10          1           0       -2.537117   -1.809069    0.884935
     11          6           0       -1.933405   -0.928728   -0.979676
     12          1           0       -2.262256   -0.102540   -1.630507
     13          1           0       -2.184842   -1.884648   -1.478310
     14          6           0        2.732747   -0.321404   -0.364674
     15          1           0        3.307136   -0.837984   -1.155470
     16          1           0        3.453948    0.283260    0.220616
     17          6           0        2.039193   -1.323102    0.570864
     18          1           0        1.680473   -2.187092   -0.022803
     19          1           0        2.746771   -1.711040    1.326560
     20          1           0       -0.620105    2.033415    1.274490
     21          1           0       -1.444897    1.686147   -0.926966
 ---------------------------------------------------------------------
 Rotational constants (GHZ):           1.6180763           0.8013694           0.7516044
 Standard basis: def2TZVPP (5D, 7F)
 There are   558 symmetry adapted cartesian basis functions of A   symmetry.
 There are   492 symmetry adapted basis functions of A   symmetry.
   492 basis functions,   749 primitive gaussians,   558 cartesian basis functions
    49 alpha electrons       49 beta electrons
       nuclear repulsion energy       863.8487919192 Hartrees.
 NAtoms=   21 NActive=   21 NUniq=   21 SFac= 1.00D+00 NAtFMM=   60 NAOKFM=F Big=F
 Integral buffers will be    131072 words long.
 Raffenetti 2 integral format.
 Two-electron integral symmetry is turned on.
 Nuclear repulsion after empirical dispersion term =      863.8367819492 Hartrees.
 One-electron integrals computed using PRISM.
   1 Symmetry operations used in ECPInt.
 ECPInt:  NShTT=   17020 NPrTT=   47563 LenC2=   16148 LenP2D=   34841.
 LDataN:  DoStor=T MaxTD1= 6 Len=  172
 NBasis=   492 RedAO= T EigKep=  2.77D-04  NBF=   492
 NBsUse=   492 1.00D-06 EigRej= -1.00D+00 NBFU=   492
 ExpMin= 7.01D-02 ExpMax= 4.48D+04 ExpMxC= 1.53D+03 IAcc=3 IRadAn=         5 AccDes= 0.00D+00
 Harris functional with IExCor= 4639 and IRadAn=       5 diagonalized for initial guess.
 HarFok:  IExCor= 4639 AccDes= 0.00D+00 IRadAn=         5 IDoV= 1 UseB2=F ITyADJ=14
 ICtDFT=  3500011 ScaDFX=  1.000000  1.000000  1.000000  1.000000
 FoFCou: FMM=F IPFlag=           0 FMFlag=      100000 FMFlg1=           0
         NFxFlg=           0 DoJE=T BraDBF=F KetDBF=T FulRan=T
         wScrn=  0.000000 ICntrl=       500 IOpCl=  0 I1Cent=   200000004 NGrid=           0
         NMat0=    1 NMatS0=      1 NMatT0=    0 NMatD0=    1 NMtDS0=    0 NMtDT0=    0
 Petite list used in FoFCou.
 Requested convergence on RMS density matrix=1.00D-08 within 128 cycles.
 Requested convergence on MAX density matrix=1.00D-06.
 Requested convergence on             energy=1.00D-06.
 No special actions if energy rises.
 Integral accuracy reduced to 1.0D-05 until final iterations.
 Initial convergence to 1.0D-05 achieved.  Increase integral accuracy.
 SCF Done:  E(RwB97XD) =  -899.441347585     A.U. after   17 cycles
            NFock= 17  Conv=0.31D-08     -V/T= 2.0035
 DoSCS=F DFT=T ScalE2(SS,OS)=  1.000000  1.000000
 Range of M.O.s used for correlation:     1   492
 NBasis=   492 NAE=    49 NBE=    49 NFC=     0 NFV=     0
 NROrb=    492 NOA=    49 NOB=    49 NVA=   443 NVB=   443

 **** Warning!!: The largest alpha MO coefficient is  0.10848509D+02

   1 Symmetry operations used in ECPInt.
 ECPInt:  NShTT=   17020 NPrTT=   47563 LenC2=   16148 LenP2D=   34841.
 LDataN:  DoStor=T MaxTD1= 7 Len=  274
 Symmetrizing basis deriv contribution to polar:
 IMax=3 JMax=2 DiffMx= 0.00D+00
 G2DrvN: will do    22 centers at a time, making    1 passes.
 Calling FoFCou, ICntrl=  3107 FMM=F I1Cent=   0 AccDes= 0.00D+00.
 End of G2Drv F.D. properties file   721 does not exist.
 End of G2Drv F.D. properties file   722 does not exist.
 End of G2Drv F.D. properties file   788 does not exist.
          IDoAtm=111111111111111111111
          Differentiating once with respect to electric field.
                with respect to dipole field.
          Differentiating once with respect to nuclear coordinates.
 CalDSu exits because no D1Ps are significant.
          There are    66 degrees of freedom in the 1st order CPHF.  IDoFFX=6 NUNeed=     3.
     63 vectors produced by pass  0 Test12= 3.29D-14 1.52D-09 XBig12= 4.40D+01 1.45D+00.
 AX will form    63 AO Fock derivatives at one time.
     63 vectors produced by pass  1 Test12= 3.29D-14 1.52D-09 XBig12= 4.23D+00 2.89D-01.
     63 vectors produced by pass  2 Test12= 3.29D-14 1.52D-09 XBig12= 9.82D-02 5.05D-02.
     63 vectors produced by pass  3 Test12= 3.29D-14 1.52D-09 XBig12= 1.71D-03 6.43D-03.
     63 vectors produced by pass  4 Test12= 3.29D-14 1.52D-09 XBig12= 2.23D-05 6.59D-04.
     63 vectors produced by pass  5 Test12= 3.29D-14 1.52D-09 XBig12= 2.12D-07 4.46D-05.
     63 vectors produced by pass  6 Test12= 3.29D-14 1.52D-09 XBig12= 1.84D-09 3.75D-06.
     36 vectors produced by pass  7 Test12= 3.29D-14 1.52D-09 XBig12= 1.35D-11 3.16D-07.
      3 vectors produced by pass  8 Test12= 3.29D-14 1.52D-09 XBig12= 9.16D-14 2.56D-08.
      3 vectors produced by pass  9 Test12= 3.29D-14 1.52D-09 XBig12= 7.62D-16 2.12D-09.
 InvSVY:  IOpt=1 It=  1 EMax= 4.44D-15
 Solved reduced A of dimension   483 with    66 vectors.
 Isotropic polarizability for W=    0.000000      110.50 Bohr**3.
 End of Minotr F.D. properties file   721 does not exist.
 End of Minotr F.D. properties file   722 does not exist.
 End of Minotr F.D. properties file   788 does not exist.

 **********************************************************************

            Population analysis using the SCF Density.

 **********************************************************************

 Orbital symmetries:
       Occupied  (A) (A) (A) (A) (A) (A) (A) (A) (A) (A) (A) (A)
                 (A) (A) (A) (A) (A) (A) (A) (A) (A) (A) (A) (A)
                 (A) (A) (A) (A) (A) (A) (A) (A) (A) (A) (A) (A)
                 (A) (A) (A) (A) (A) (A) (A) (A) (A) (A) (A) (A)
                 (A)
       Virtual   (A) (A) (A) (A) (A) (A) (A) (A) (A) (A) (A) (A)
                 (A) (A) (A) (A) (A) (A) (A) (A) (A) (A) (A) (A)
                 (A) (A) (A) (A) (A) (A) (A) (A) (A) (A) (A) (A)
                 (A) (A) (A) (A) (A) (A) (A) (A) (A) (A) (A) (A)
                 (A) (A) (A) (A) (A) (A) (A) (A) (A) (A) (A) (A)
                 (A) (A) (A) (A) (A) (A) (A) (A) (A) (A) (A) (A)
                 (A) (A) (A) (A) (A) (A) (A) (A) (A) (A) (A) (A)
                 (A) (A) (A) (A) (A) (A) (A) (A) (A) (A) (A) (A)
                 (A) (A) (A) (A) (A) (A) (A) (A) (A) (A) (A) (A)
                 (A) (A) (A) (A) (A) (A) (A) (A) (A) (A) (A) (A)
                 (A) (A) (A) (A) (A) (A) (A) (A) (A) (A) (A) (A)
                 (A) (A) (A) (A) (A) (A) (A) (A) (A) (A) (A) (A)
                 (A) (A) (A) (A) (A) (A) (A) (A) (A) (A) (A) (A)
                 (A) (A) (A) (A) (A) (A) (A) (A) (A) (A) (A) (A)
                 (A) (A) (A) (A) (A) (A) (A) (A) (A) (A) (A) (A)
                 (A) (A) (A) (A) (A) (A) (A) (A) (A) (A) (A) (A)
                 (A) (A) (A) (A) (A) (A) (A) (A) (A) (A) (A) (A)
                 (A) (A) (A) (A) (A) (A) (A) (A) (A) (A) (A) (A)
                 (A) (A) (A) (A) (A) (A) (A) (A) (A) (A) (A) (A)
                 (A) (A) (A) (A) (A) (A) (A) (A) (A) (A) (A) (A)
                 (A) (A) (A) (A) (A) (A) (A) (A) (A) (A) (A) (A)
                 (A) (A) (A) (A) (A) (A) (A) (A) (A) (A) (A) (A)
                 (A) (A) (A) (A) (A) (A) (A) (A) (A) (A) (A) (A)
                 (A) (A) (A) (A) (A) (A) (A) (A) (A) (A) (A) (A)
                 (A) (A) (A) (A) (A) (A) (A) (A) (A) (A) (A) (A)
                 (A) (A) (A) (A) (A) (A) (A) (A) (A) (A) (A) (A)
                 (A) (A) (A) (A) (A) (A) (A) (A) (A) (A) (A) (A)
                 (A) (A) (A) (A) (A) (A) (A) (A) (A) (A) (A) (A)
                 (A) (A) (A) (A) (A) (A) (A) (A) (A) (A) (A) (A)
                 (A) (A) (A) (A) (A) (A) (A) (A) (A) (A) (A) (A)
                 (A) (A) (A) (A) (A) (A) (A) (A) (A) (A) (A) (A)
                 (A) (A) (A) (A) (A) (A) (A) (A) (A) (A) (A) (A)
                 (A) (A) (A) (A) (A) (A) (A) (A) (A) (A) (A) (A)
                 (A) (A) (A) (A) (A) (A) (A) (A) (A) (A) (A) (A)
                 (A) (A) (A) (A) (A) (A) (A) (A) (A) (A) (A) (A)
                 (A) (A) (A) (A) (A) (A) (A) (A) (A) (A) (A) (A)
                 (A) (A) (A) (A) (A) (A) (A) (A) (A) (A) (A)
 The electronic state is 1-A.
 Alpha  occ. eigenvalues --  -65.98013 -18.91444 -18.89795 -18.89463 -18.87875
 Alpha  occ. eigenvalues --  -18.87408 -18.82784 -10.04464 -10.03626 -10.01370
 Alpha  occ. eigenvalues --  -10.00056  -5.08778  -3.43553  -3.43214  -3.43188
 Alpha  occ. eigenvalues --   -0.82173  -0.77964  -0.75739  -0.74123  -0.71043
 Alpha  occ. eigenvalues --   -0.70342  -0.52248  -0.48410  -0.40170  -0.36158
 Alpha  occ. eigenvalues --   -0.30962  -0.28983  -0.27027  -0.25866  -0.23840
 Alpha  occ. eigenvalues --   -0.22289  -0.21309  -0.20469  -0.18771  -0.17341
 Alpha  occ. eigenvalues --   -0.16376  -0.14881  -0.11772  -0.08971  -0.08536
 Alpha  occ. eigenvalues --   -0.07832  -0.07161  -0.05724  -0.04985  -0.03325
 Alpha  occ. eigenvalues --   -0.01929  -0.00564   0.03187   0.03719
 Alpha virt. eigenvalues --    0.36524   0.38329   0.40039   0.40582   0.41191
 Alpha virt. eigenvalues --    0.42711   0.43147   0.45410   0.46017   0.46424
 Alpha virt. eigenvalues --    0.48951   0.49772   0.51432   0.52715   0.52885
 Alpha virt. eigenvalues --    0.53730   0.54254   0.55263   0.56730   0.57102
 Alpha virt. eigenvalues --    0.58969   0.61758   0.64670   0.66217   0.66534
 Alpha virt. eigenvalues --    0.68004   0.68811   0.69116   0.70060   0.71139
 Alpha virt. eigenvalues --    0.71386   0.72248   0.73677   0.73716   0.74577
 Alpha virt. eigenvalues --    0.75130   0.76274   0.77123   0.77511   0.78000
 Alpha virt. eigenvalues --    0.78474   0.79456   0.80638   0.81451   0.82863
 Alpha virt. eigenvalues --    0.83988   0.84999   0.85043   0.85814   0.86794
 Alpha virt. eigenvalues --    0.87464   0.88895   0.90005   0.90677   0.91343
 Alpha virt. eigenvalues --    0.92798   0.94812   0.95580   0.97455   0.99205
 Alpha virt. eigenvalues --    1.00288   1.00706   1.03483   1.04468   1.05074
 Alpha virt. eigenvalues --    1.06559   1.07226   1.10088   1.10413   1.11888
 Alpha virt. eigenvalues --    1.12557   1.14248   1.14765   1.15601   1.16855
 Alpha virt. eigenvalues --    1.17629   1.19290   1.20149   1.20360   1.21695
 Alpha virt. eigenvalues --    1.22735   1.24665   1.24699   1.26524   1.29740
 Alpha virt. eigenvalues --    1.30735   1.31548   1.32293   1.33861   1.34498
 Alpha virt. eigenvalues --    1.36932   1.37414   1.39163   1.39443   1.39744
 Alpha virt. eigenvalues --    1.40945   1.41368   1.44721   1.45551   1.45972
 Alpha virt. eigenvalues --    1.46854   1.48176   1.48432   1.50488   1.51869
 Alpha virt. eigenvalues --    1.53008   1.54391   1.56198   1.56390   1.57660
 Alpha virt. eigenvalues --    1.58539   1.59248   1.60053   1.60816   1.61455
 Alpha virt. eigenvalues --    1.63656   1.65674   1.66286   1.67940   1.68783
 Alpha virt. eigenvalues --    1.70906   1.71662   1.73087   1.74962   1.75679
 Alpha virt. eigenvalues --    1.76441   1.77229   1.77573   1.78378   1.82202
 Alpha virt. eigenvalues --    1.83645   1.86060   1.86742   1.87010   1.88198
 Alpha virt. eigenvalues --    1.90682   1.91463   1.92783   1.93207   1.95160
 Alpha virt. eigenvalues --    1.97260   1.98583   2.01025   2.03628   2.08889
 Alpha virt. eigenvalues --    2.12121   2.15209   2.17391   2.18627   2.21890
 Alpha virt. eigenvalues --    2.23938   2.25566   2.27348   2.29631   2.30487
 Alpha virt. eigenvalues --    2.32871   2.35162   2.37254   2.37700   2.38920
 Alpha virt. eigenvalues --    2.39651   2.41854   2.42690   2.43390   2.44895
 Alpha virt. eigenvalues --    2.47121   2.48264   2.50100   2.52459   2.54895
 Alpha virt. eigenvalues --    2.55089   2.56882   2.59225   2.60437   2.62044
 Alpha virt. eigenvalues --    2.64811   2.65526   2.67464   2.68939   2.71973
 Alpha virt. eigenvalues --    2.73811   2.75808   2.77258   2.77843   2.79950
 Alpha virt. eigenvalues --    2.82349   2.84925   2.86552   2.91007   2.93752
 Alpha virt. eigenvalues --    2.95789   2.96564   2.99897   3.00292   3.01434
 Alpha virt. eigenvalues --    3.01776   3.04355   3.06199   3.10287   3.14014
 Alpha virt. eigenvalues --    3.14907   3.16534   3.17825   3.18533   3.20620
 Alpha virt. eigenvalues --    3.21851   3.24068   3.25678   3.27845   3.28622
 Alpha virt. eigenvalues --    3.29609   3.31790   3.33382   3.34397   3.36010
 Alpha virt. eigenvalues --    3.37084   3.39123   3.39760   3.40654   3.42503
 Alpha virt. eigenvalues --    3.43248   3.44625   3.46281   3.48530   3.49163
 Alpha virt. eigenvalues --    3.50268   3.50488   3.50944   3.51980   3.52937
 Alpha virt. eigenvalues --    3.53367   3.55978   3.57953   3.59126   3.60700
 Alpha virt. eigenvalues --    3.61877   3.63896   3.64818   3.68052   3.69070
 Alpha virt. eigenvalues --    3.70404   3.72685   3.73877   3.74952   3.76049
 Alpha virt. eigenvalues --    3.76444   3.79777   3.80296   3.82378   3.84046
 Alpha virt. eigenvalues --    3.86547   3.87086   3.89295   3.89984   3.90894
 Alpha virt. eigenvalues --    3.92185   3.93751   3.94807   3.96821   3.97946
 Alpha virt. eigenvalues --    3.99583   4.01286   4.02992   4.04510   4.05694
 Alpha virt. eigenvalues --    4.08953   4.09023   4.09770   4.10249   4.12264
 Alpha virt. eigenvalues --    4.13570   4.16123   4.17506   4.18882   4.20433
 Alpha virt. eigenvalues --    4.22762   4.23317   4.25023   4.29390   4.30217
 Alpha virt. eigenvalues --    4.32742   4.33774   4.34697   4.35801   4.39865
 Alpha virt. eigenvalues --    4.39960   4.41037   4.42082   4.42613   4.44765
 Alpha virt. eigenvalues --    4.46669   4.48636   4.49910   4.50883   4.52208
 Alpha virt. eigenvalues --    4.53653   4.55424   4.56116   4.57896   4.60615
 Alpha virt. eigenvalues --    4.62137   4.63428   4.64757   4.66063   4.67864
 Alpha virt. eigenvalues --    4.68938   4.69357   4.70601   4.71559   4.73479
 Alpha virt. eigenvalues --    4.77205   4.81966   4.84185   4.86505   4.92872
 Alpha virt. eigenvalues --    4.93972   4.94598   4.95724   5.01561   5.01882
 Alpha virt. eigenvalues --    5.03315   5.04537   5.07140   5.10192   5.11815
 Alpha virt. eigenvalues --    5.14490   5.16139   5.16661   5.18920   5.22055
 Alpha virt. eigenvalues --    5.25779   5.27491   5.28790   5.30863   5.32107
 Alpha virt. eigenvalues --    5.35590   5.36094   5.38271   5.38558   5.40446
 Alpha virt. eigenvalues --    5.42856   5.45786   5.47013   5.48397   5.51299
 Alpha virt. eigenvalues --    5.52734   5.55611   5.61668   5.62908   5.64780
 Alpha virt. eigenvalues --    5.66044   5.67590   5.70374   5.70922   5.73330
 Alpha virt. eigenvalues --    5.74412   5.77182   5.77356   5.79852   5.82023
 Alpha virt. eigenvalues --    5.82405   5.84459   5.84766   5.87886   5.88634
 Alpha virt. eigenvalues --    5.89805   5.91779   5.93332   5.94162   5.97410
 Alpha virt. eigenvalues --    5.99646   6.00997   6.02431   6.05065   6.07287
 Alpha virt. eigenvalues --    6.09837   6.12609   6.13980   6.15350   6.20186
 Alpha virt. eigenvalues --    6.37406   6.39051   6.42604   6.47009   6.47201
 Alpha virt. eigenvalues --    6.52869   6.53553   6.54561   6.60098   6.62461
 Alpha virt. eigenvalues --    6.66435   6.67813   6.70463   6.89545   6.92251
 Alpha virt. eigenvalues --    6.94752   6.96335   6.99426   7.00400   7.01385
 Alpha virt. eigenvalues --    7.05114   7.06240   7.07626   7.09727   7.11021
 Alpha virt. eigenvalues --    7.11198   7.13018   7.16475   7.17427   7.19183
 Alpha virt. eigenvalues --    7.21340   7.27501   7.29027   7.34380   7.38287
 Alpha virt. eigenvalues --    7.40669   7.41933   7.44863   7.46163   7.49896
 Alpha virt. eigenvalues --    7.52370   7.56096   7.63234   7.64885   7.68383
 Alpha virt. eigenvalues --    7.75186   7.80734   7.85415   7.85920   7.97005
 Alpha virt. eigenvalues --    7.99717   8.02277  12.42203  23.67416  23.72704
 Alpha virt. eigenvalues --   23.79792  23.83531  44.26732  44.34304  44.43809
 Alpha virt. eigenvalues --   44.51924  44.65045  44.69444
          Condensed to atoms (all electrons):
               1          2          3          4          5          6
     1  Si  11.535357   0.393538   0.348753   0.381705   0.340402   0.085202
     2  O    0.393538   8.052406   0.005785  -0.025922  -0.078835  -0.017128
     3  O    0.348753   0.005785   8.077176  -0.034344  -0.046816  -0.003009
     4  O    0.381705  -0.025922  -0.034344   8.009783  -0.029920   0.000005
     5  O    0.340402  -0.078835  -0.046816  -0.029920   8.064772  -0.003786
     6  O    0.085202  -0.017128  -0.003009   0.000005  -0.003786   8.481431
     7  O    0.424348  -0.107215  -0.066365  -0.021912  -0.005613  -0.025664
     8  C   -0.038566  -0.005015   0.004249  -0.001234  -0.095750   0.519928
     9  H    0.010021  -0.000664  -0.000041   0.000012   0.009456  -0.052353
    10  H   -0.011798  -0.000486   0.001024   0.000011   0.021026  -0.080517
    11  C   -0.041714   0.001472   0.001338   0.001190   0.310723  -0.227136
    12  H   -0.014673   0.022978  -0.000517   0.000004  -0.061793   0.015881
    13  H    0.006838   0.001164  -0.000326  -0.000136  -0.034209   0.018489
    14  C   -0.076621   0.003744  -0.120859   0.378397  -0.007916  -0.000382
    15  H    0.000741  -0.000008   0.008365  -0.052559   0.000668   0.000000
    16  H    0.008483   0.000097   0.015111  -0.065120  -0.000462   0.000018
    17  C   -0.064804  -0.003945   0.389473  -0.109356   0.004218  -0.001402
    18  H    0.015836   0.000321  -0.063458   0.010073   0.017971   0.000395
    19  H   -0.004056   0.000041  -0.050486   0.006390  -0.000079  -0.000038
    20  H   -0.050992   0.011507   0.007669   0.001330   0.000021   0.007797
    21  H   -0.080811   0.318960   0.000216   0.003206   0.006195   0.028947
               7          8          9         10         11         12
     1  Si   0.424348  -0.038566   0.010021  -0.011798  -0.041714  -0.014673
     2  O   -0.107215  -0.005015  -0.000664  -0.000486   0.001472   0.022978
     3  O   -0.066365   0.004249  -0.000041   0.001024   0.001338  -0.000517
     4  O   -0.021912  -0.001234   0.000012   0.000011   0.001190   0.000004
     5  O   -0.005613  -0.095750   0.009456   0.021026   0.310723  -0.061793
     6  O   -0.025664   0.519928  -0.052353  -0.080517  -0.227136   0.015881
     7  O    7.986946   0.002613  -0.000396  -0.000100  -0.007770   0.001348
     8  C    0.002613   4.826076   0.086335   0.335014   0.241219  -0.088692
     9  H   -0.000396   0.086335   1.314999  -0.169724  -0.059410  -0.013069
    10  H   -0.000100   0.335014  -0.169724   1.165930  -0.182044   0.030301
    11  C   -0.007770   0.241219  -0.059410  -0.182044   5.332681   0.323666
    12  H    0.001348  -0.088692  -0.013069   0.030301   0.323666   0.886384
    13  H   -0.000197  -0.016020   0.036166  -0.002332   0.214641  -0.065339
    14  C    0.000995  -0.000309  -0.000018   0.000103   0.000649  -0.000251
    15  H   -0.000174  -0.000006  -0.000000  -0.000003   0.000086   0.000018
    16  H    0.000638  -0.000035   0.000001  -0.000001  -0.000036  -0.000004
    17  C    0.001263   0.001593  -0.000140   0.000689  -0.003402  -0.000219
    18  H   -0.000699  -0.001331   0.000060   0.000425  -0.000326   0.000517
    19  H   -0.000181   0.000039  -0.000004   0.000004   0.000271   0.000001
    20  H    0.309765   0.000602  -0.000603   0.000784  -0.000976  -0.000168
    21  H    0.000068   0.007577  -0.002827   0.003050  -0.020881   0.007949
              13         14         15         16         17         18
     1  Si   0.006838  -0.076621   0.000741   0.008483  -0.064804   0.015836
     2  O    0.001164   0.003744  -0.000008   0.000097  -0.003945   0.000321
     3  O   -0.000326  -0.120859   0.008365   0.015111   0.389473  -0.063458
     4  O   -0.000136   0.378397  -0.052559  -0.065120  -0.109356   0.010073
     5  O   -0.034209  -0.007916   0.000668  -0.000462   0.004218   0.017971
     6  O    0.018489  -0.000382   0.000000   0.000018  -0.001402   0.000395
     7  O   -0.000197   0.000995  -0.000174   0.000638   0.001263  -0.000699
     8  C   -0.016020  -0.000309  -0.000006  -0.000035   0.001593  -0.001331
     9  H    0.036166  -0.000018  -0.000000   0.000001  -0.000140   0.000060
    10  H   -0.002332   0.000103  -0.000003  -0.000001   0.000689   0.000425
    11  C    0.214641   0.000649   0.000086  -0.000036  -0.003402  -0.000326
    12  H   -0.065339  -0.000251   0.000018  -0.000004  -0.000219   0.000517
    13  H    0.890741  -0.000202   0.000014   0.000003   0.000126   0.000164
    14  C   -0.000202   4.902149   0.302978   0.352637   0.241555  -0.101704
    15  H    0.000014   0.302978   0.910056  -0.120003  -0.006549  -0.014187
    16  H    0.000003   0.352637  -0.120003   0.903517  -0.062289   0.024992
    17  C    0.000126   0.241555  -0.006549  -0.062289   4.855352   0.365814
    18  H    0.000164  -0.101704  -0.014187   0.024992   0.365814   0.885774
    19  H   -0.000068  -0.001053   0.014281  -0.026342   0.299002  -0.114932
    20  H   -0.000065  -0.000570   0.000036   0.000122  -0.000189   0.000141
    21  H    0.001455  -0.000642   0.000013   0.000049  -0.000144   0.000081
              19         20         21
     1  Si  -0.004056  -0.050992  -0.080811
     2  O    0.000041   0.011507   0.318960
     3  O   -0.050486   0.007669   0.000216
     4  O    0.006390   0.001330   0.003206
     5  O   -0.000079   0.000021   0.006195
     6  O   -0.000038   0.007797   0.028947
     7  O   -0.000181   0.309765   0.000068
     8  C    0.000039   0.000602   0.007577
     9  H   -0.000004  -0.000603  -0.002827
    10  H    0.000004   0.000784   0.003050
    11  C    0.000271  -0.000976  -0.020881
    12  H    0.000001  -0.000168   0.007949
    13  H   -0.000068  -0.000065   0.001455
    14  C   -0.001053  -0.000570  -0.000642
    15  H    0.014281   0.000036   0.000013
    16  H   -0.026342   0.000122   0.000049
    17  C    0.299002  -0.000189  -0.000144
    18  H   -0.114932   0.000141   0.000081
    19  H    0.915638   0.000054  -0.000010
    20  H    0.000054   0.561823   0.004227
    21  H   -0.000010   0.004227   0.612061
 Mulliken charges:
               1
     1  Si   0.832813
     2  O   -0.572796
     3  O   -0.472939
     4  O   -0.451603
     5  O   -0.410274
     6  O   -0.746677
     7  O   -0.491697
     8  C    0.221713
     9  H   -0.157802
    10  H   -0.111356
    11  C    0.115761
    12  H   -0.044320
    13  H   -0.050906
    14  C    0.127320
    15  H   -0.043766
    16  H   -0.031374
    17  C    0.093354
    18  H   -0.025924
    19  H   -0.038473
    20  H    0.147685
    21  H    0.111262
 Sum of Mulliken charges =  -2.00000
 Mulliken charges with hydrogens summed into heavy atoms:
               1
     1  Si   0.832813
     2  O   -0.461534
     3  O   -0.472939
     4  O   -0.451603
     5  O   -0.410274
     6  O   -0.746677
     7  O   -0.344012
     8  C   -0.047445
    11  C    0.020534
    14  C    0.052179
    17  C    0.028957
 APT charges:
               1
     1  Si   2.519942
     2  O   -0.900513
     3  O   -0.992989
     4  O   -0.985494
     5  O   -1.060216
     6  O   -1.107042
     7  O   -0.943700
     8  C    0.871411
     9  H   -0.351964
    10  H   -0.279862
    11  C    0.582950
    12  H   -0.134635
    13  H   -0.186337
    14  C    0.607173
    15  H   -0.175445
    16  H   -0.183783
    17  C    0.589555
    18  H   -0.142229
    19  H   -0.181959
    20  H    0.239255
    21  H    0.215884
 Sum of APT charges =  -2.00000
 APT charges with hydrogens summed into heavy atoms:
               1
     1  Si   2.519942
     2  O   -0.684630
     3  O   -0.992989
     4  O   -0.985494
     5  O   -1.060216
     6  O   -1.107042
     7  O   -0.704445
     8  C    0.239585
    11  C    0.261977
    14  C    0.247945
    17  C    0.265367
 Electronic spatial extent (au):  <R**2>=           1846.6763
 Charge=             -2.0000 electrons
 Dipole moment (field-independent basis, Debye):
    X=              3.2317    Y=             -1.9377    Z=             -1.8482  Tot=              4.1969
 Quadrupole moment (field-independent basis, Debye-Ang):
   XX=           -112.3907   YY=            -93.6602   ZZ=            -97.6786
   XY=             -5.7233   XZ=              5.7202   YZ=              2.0165
 Traceless Quadrupole moment (field-independent basis, Debye-Ang):
   XX=            -11.1475   YY=              7.5829   ZZ=              3.5646
   XY=             -5.7233   XZ=              5.7202   YZ=              2.0165
 Octapole moment (field-independent basis, Debye-Ang**2):
  XXX=             55.4715  YYY=              9.7885  ZZZ=             -1.8880  XYY=             -2.2386
  XXY=             19.4699  XXZ=            -14.7466  XZZ=              6.5129  YZZ=             -2.3557
  YYZ=              4.1515  XYZ=              2.5717
 Hexadecapole moment (field-independent basis, Debye-Ang**3):
 XXXX=          -1914.8077 YYYY=           -629.5545 ZZZZ=           -479.6103 XXXY=            -42.9927
 XXXZ=             54.1560 YYYX=            -32.7470 YYYZ=             13.8351 ZZZX=             -2.5510
 ZZZY=              6.3160 XXYY=           -392.0496 XXZZ=           -382.4513 YYZZ=           -193.6872
 XXYZ=             -2.2349 YYXZ=            -10.8530 ZZXY=             -9.0827
 N-N= 8.638367819492D+02 E-N=-3.887232650430D+03  KE= 8.963195350981D+02
  Exact polarizability:     128.870       2.663     107.305       4.247       1.174      95.316
 Approx polarizability:     118.057      -0.120     112.422       3.191       3.274     104.158
   1 Symmetry operations used in ECPInt.
 ECPInt:  NShTT=   17020 NPrTT=   47563 LenC2=   16148 LenP2D=   34841.
 LDataN:  DoStor=T MaxTD1= 8 Len=  415
 Calling FoFJK, ICntrl=    100127 FMM=F ISym2X=0 I1Cent= 0 IOpClX= 0 NMat=1 NMatS=1 NMatT=0.
 ***** Axes restored to original set *****
 -------------------------------------------------------------------
 Center     Atomic                   Forces (Hartrees/Bohr)
 Number     Number              X              Y              Z
 -------------------------------------------------------------------
      1       14           0.006970468   -0.023400787   -0.001207245
      2        8           0.004678967   -0.000548920   -0.009457225
      3        8          -0.005148967    0.004688882   -0.001088811
      4        8           0.003155979   -0.000625535    0.000736409
      5        8           0.003136978    0.013348881    0.002390278
      6        8           0.002467409   -0.006144275   -0.001233913
      7        8           0.000550797    0.002634753    0.011905837
      8        6          -0.000009256    0.002935079   -0.001397216
      9        1           0.000231898   -0.000059767    0.000172441
     10        1           0.000277661   -0.001456470   -0.000306558
     11        6          -0.006726872    0.001627459    0.002890022
     12        1           0.001003683    0.000686078   -0.002313312
     13        1           0.000826467   -0.000453532   -0.000469617
     14        6           0.001685243   -0.000458776    0.000074699
     15        1          -0.000016316    0.000056885   -0.000241639
     16        1          -0.000146770   -0.000076299    0.000072828
     17        6           0.000834057    0.000708893    0.000798257
     18        1          -0.000417181    0.000472664   -0.000443062
     19        1          -0.000541260    0.000156926    0.000126363
     20        1          -0.006201582    0.004522299   -0.004544977
     21        1          -0.006611404    0.001385561    0.003536440
 -------------------------------------------------------------------
 Cartesian Forces:  Max     0.023400787 RMS     0.004678064
 FormGI is forming the generalized inverse of G from B-inverse, IUseBI=4.

 GradGradGradGradGradGradGradGradGradGradGradGradGradGradGradGradGradGrad
 Berny optimization.
 Internal  Forces:  Max     0.012898355 RMS     0.003460631
 Search for a saddle point.
 Step number   1 out of a maximum of  116
 All quantities printed in internal units (Hartrees-Bohrs-Radians)
 Swapping is turned off.
 Second derivative matrix not updated -- analytic derivatives used.
 ITU=  0
     Eigenvalues ---   -0.03897  -0.00291   0.00249   0.00343   0.00584
     Eigenvalues ---    0.00675   0.01484   0.02484   0.04112   0.04407
     Eigenvalues ---    0.04538   0.04847   0.04931   0.05434   0.05527
     Eigenvalues ---    0.06222   0.06889   0.07186   0.08536   0.08563
     Eigenvalues ---    0.09214   0.09465   0.09791   0.10091   0.10117
     Eigenvalues ---    0.10463   0.11797   0.12391   0.13736   0.14725
     Eigenvalues ---    0.15574   0.16659   0.17127   0.17836   0.19825
     Eigenvalues ---    0.21776   0.22966   0.24533   0.24905   0.25365
     Eigenvalues ---    0.26029   0.27388   0.28172   0.28521   0.28731
     Eigenvalues ---    0.29698   0.29765   0.30127   0.31090   0.32439
     Eigenvalues ---    0.36521   0.38530   0.42328   0.47906   0.53922
     Eigenvalues ---    0.54312   0.61744
 Eigenvectors required to have negative eigenvalues:
                          A9        D6        A8        D2        D3
   1                   -0.47188  -0.27403   0.25818  -0.23698   0.23470
                          A13       D14       A7        A21       D5
   1                    0.22544   0.21667   0.21239   0.20936   0.19846
 RFO step:  Lambda0=1.592096684D-03 Lambda=-1.64961586D-02.
 Linear search not attempted -- option 19 set.
 Maximum step size (   0.300) exceeded in Quadratic search.
    -- Step size scaled by   0.829
 Iteration  1 RMS(Cart)=  0.17017925 RMS(Int)=  0.02062867
 Iteration  2 RMS(Cart)=  0.02609825 RMS(Int)=  0.00116261
 Iteration  3 RMS(Cart)=  0.00078636 RMS(Int)=  0.00086788
 Iteration  4 RMS(Cart)=  0.00000106 RMS(Int)=  0.00086788
 Iteration  5 RMS(Cart)=  0.00000000 RMS(Int)=  0.00086788
 Variable       Old X    -DE/DX   Delta X   Delta X   Delta X     New X
                                 (Linear)    (Quad)   (Total)
    R1        3.33726   0.00232   0.00000  -0.02660  -0.02660   3.31066
    R2        3.36793   0.00432   0.00000   0.06671   0.06681   3.43474
    R3        3.31129  -0.00341   0.00000  -0.00588  -0.00581   3.30549
    R4        3.22141   0.00957   0.00000   0.08979   0.08979   3.31121
    R5        3.25856  -0.00123   0.00000   0.01067   0.01067   3.26923
    R6        1.81414  -0.00537   0.00000   0.00026   0.00026   1.81440
    R7        2.59193  -0.00093   0.00000  -0.00685  -0.00694   2.58499
    R8        2.60968  -0.00035   0.00000  -0.00460  -0.00465   2.60503
    R9        2.62566  -0.00233   0.00000  -0.02300  -0.02300   2.60266
   R10        2.51231   0.00446   0.00000   0.03895   0.03895   2.55126
   R11        1.81414  -0.00707   0.00000  -0.00309  -0.00309   1.81105
   R12        2.15527   0.00016   0.00000  -0.02845  -0.02845   2.12682
   R13        2.14212  -0.00141   0.00000  -0.02354  -0.02354   2.11859
   R14        2.90974  -0.00112   0.00000  -0.00581  -0.00581   2.90393
   R15        2.08240   0.00148   0.00000   0.00851   0.00851   2.09091
   R16        2.09209  -0.00023   0.00000   0.00066   0.00066   2.09275
   R17        2.08910   0.00020   0.00000   0.00284   0.00284   2.09193
   R18        2.09437   0.00016   0.00000   0.00190   0.00190   2.09627
   R19        2.90284   0.00058   0.00000   0.00329   0.00322   2.90606
   R20        2.09376   0.00059   0.00000   0.00376   0.00376   2.09752
   R21        2.08919   0.00049   0.00000   0.00497   0.00497   2.09416
    A1        1.60404  -0.00233   0.00000  -0.00646  -0.00581   1.59823
    A2        1.60003  -0.00114   0.00000   0.00721   0.00409   1.60411
    A3        1.54469   0.00456   0.00000   0.06064   0.05798   1.60267
    A4        1.54160  -0.00048   0.00000  -0.01112  -0.01141   1.53020
    A5        1.60915  -0.00335   0.00000  -0.07605  -0.07355   1.53559
    A6        1.52933   0.00121   0.00000   0.01464   0.01736   1.54669
    A7        1.76954   0.00252   0.00000  -0.01978  -0.02064   1.74890
    A8        1.88527   0.00258   0.00000  -0.03644  -0.03683   1.84845
    A9        2.62799  -0.00519   0.00000   0.05369   0.05105   2.67904
   A10        1.91063  -0.00963   0.00000  -0.14455  -0.14455   1.76608
   A11        1.91858   0.00014   0.00000  -0.00534  -0.00519   1.91338
   A12        1.99115   0.00071   0.00000   0.01103   0.01122   2.00237
   A13        2.14531   0.00441   0.00000  -0.06250  -0.06250   2.08281
   A14        1.91063  -0.00987   0.00000  -0.11457  -0.11457   1.79606
   A15        2.01687  -0.00052   0.00000  -0.01532  -0.01485   2.00202
   A16        1.99589   0.00242   0.00000  -0.01722  -0.01739   1.97850
   A17        1.94666  -0.00373   0.00000  -0.04903  -0.04887   1.89778
   A18        1.80609   0.00008   0.00000   0.02361   0.02214   1.82823
   A19        1.83208   0.00024   0.00000   0.04722   0.04687   1.87894
   A20        1.84951   0.00181   0.00000   0.02282   0.02214   1.87164
   A21        1.93539   0.00389   0.00000  -0.03439  -0.03449   1.90090
   A22        1.92744   0.00096   0.00000   0.00889   0.00828   1.93573
   A23        1.89292  -0.00297   0.00000   0.02038   0.02060   1.91352
   A24        1.89077  -0.00571   0.00000  -0.01467  -0.01484   1.87593
   A25        1.92718   0.00448   0.00000   0.02697   0.02721   1.95440
   A26        1.88976  -0.00067   0.00000  -0.00639  -0.00635   1.88341
   A27        1.93929  -0.00057   0.00000  -0.00155  -0.00151   1.93778
   A28        1.93673   0.00001   0.00000   0.00226   0.00224   1.93898
   A29        1.86865   0.00085   0.00000   0.00517   0.00513   1.87378
   A30        1.86983   0.00008   0.00000  -0.00148  -0.00149   1.86835
   A31        1.94500  -0.00076   0.00000  -0.00336  -0.00338   1.94161
   A32        1.90493   0.00040   0.00000  -0.00108  -0.00105   1.90387
   A33        1.85020  -0.00134   0.00000  -0.00020  -0.00035   1.84985
   A34        1.95636   0.00094   0.00000   0.00687   0.00689   1.96325
   A35        1.94223   0.00036   0.00000   0.00450   0.00457   1.94680
   A36        1.90536  -0.00021   0.00000  -0.00384  -0.00373   1.90163
   A37        1.93494   0.00046   0.00000  -0.00516  -0.00521   1.92973
   A38        1.87532  -0.00019   0.00000  -0.00239  -0.00244   1.87288
   A39        3.14564  -0.00282   0.00000  -0.01759  -0.01722   3.12842
   A40        3.07180   0.00511   0.00000   0.07413   0.07410   3.14590
    D1        3.04678   0.00048   0.00000   0.19052   0.19029  -3.04611
    D2        1.27605  -0.00192   0.00000   0.21028   0.21103   1.48707
    D3       -1.35175   0.00321   0.00000   0.15577   0.15525  -1.19650
    D4       -0.45764   0.00040   0.00000   0.00579   0.00558  -0.45206
    D5        1.31100   0.00298   0.00000  -0.01270  -0.01244   1.29856
    D6       -2.34460  -0.00216   0.00000   0.04236   0.04276  -2.30184
    D7        3.12807   0.00390   0.00000   0.06552   0.06558  -3.08953
    D8        0.05627  -0.00120   0.00000  -0.00862  -0.00852   0.04775
    D9       -1.54778   0.00237   0.00000   0.07077   0.06785  -1.47993
   D10        1.57393  -0.00020   0.00000   0.00484   0.00794   1.58187
   D11       -0.94051   0.00324   0.00000  -0.00585  -0.00605  -0.94656
   D12        2.18333   0.00683   0.00000   0.02731   0.02544   2.20877
   D13       -2.55113   0.00575   0.00000   0.00002  -0.00012  -2.55124
   D14        0.62896   0.01035   0.00000   0.13181   0.13402   0.76298
   D15        0.94803   0.00193   0.00000   0.28085   0.28300   1.23103
   D16       -2.21132   0.00065   0.00000   0.28950   0.28927  -1.92205
   D17        2.54530   0.00091   0.00000   0.29438   0.29416   2.83945
   D18       -0.63598  -0.00384   0.00000   0.15883   0.15713  -0.47885
   D19        0.69267  -0.00062   0.00000  -0.00446  -0.00428   0.68839
   D20       -1.38462  -0.00004   0.00000  -0.00348  -0.00335  -1.38798
   D21        2.79795  -0.00069   0.00000  -0.00831  -0.00824   2.78970
   D22        2.43487   0.00064   0.00000   0.00663   0.00666   2.44153
   D23       -1.76983   0.00038   0.00000   0.00524   0.00528  -1.76455
   D24        0.30734   0.00138   0.00000   0.00835   0.00842   0.31576
   D25       -1.00941   0.01290   0.00000   0.23116   0.23114  -0.77828
   D26        1.08669   0.00891   0.00000   0.19619   0.19609   1.28278
   D27       -3.12831   0.00686   0.00000   0.20593   0.20605  -2.92225
   D28        0.89469   0.00225   0.00000  -0.04025  -0.03986   0.85484
   D29       -1.22313   0.00235   0.00000  -0.02039  -0.02041  -1.24354
   D30        2.99332   0.00402   0.00000  -0.01939  -0.01924   2.97407
   D31        3.09113  -0.00053   0.00000  -0.05727  -0.05761   3.03352
   D32        0.97331  -0.00043   0.00000  -0.03741  -0.03816   0.93514
   D33       -1.09343   0.00124   0.00000  -0.03641  -0.03699  -1.13043
   D34       -1.28758   0.00035   0.00000  -0.00371  -0.00311  -1.29069
   D35        2.87778   0.00045   0.00000   0.01615   0.01633   2.89411
   D36        0.81104   0.00212   0.00000   0.01715   0.01750   0.82854
   D37       -0.63748  -0.00072   0.00000  -0.00758  -0.00757  -0.64504
   D38        1.47311  -0.00049   0.00000  -0.00160  -0.00160   1.47152
   D39       -2.74747  -0.00058   0.00000  -0.00999  -0.00995  -2.75742
   D40       -2.76142  -0.00010   0.00000  -0.00701  -0.00700  -2.76842
   D41       -0.65083   0.00013   0.00000  -0.00104  -0.00103  -0.65186
   D42        1.41177   0.00003   0.00000  -0.00943  -0.00938   1.40239
   D43        1.46014   0.00001   0.00000  -0.00248  -0.00248   1.45766
   D44       -2.71245   0.00024   0.00000   0.00350   0.00349  -2.70897
   D45       -0.64985   0.00015   0.00000  -0.00490  -0.00486  -0.65472
         Item               Value     Threshold  Converged?
 Maximum Force            0.012898     0.000450     NO 
 RMS     Force            0.003461     0.000300     NO 
 Maximum Displacement     0.660173     0.001800     NO 
 RMS     Displacement     0.182834     0.001200     NO 
 Predicted change in Energy=-1.018197D-02
 GradGradGradGradGradGradGradGradGradGradGradGradGradGradGradGradGradGrad

                          Input orientation:                          
 ---------------------------------------------------------------------
 Center     Atomic      Atomic             Coordinates (Angstroms)
 Number     Number       Type             X           Y           Z
 ---------------------------------------------------------------------
      1         14           0       -0.225585   -0.091442   -0.024629
      2          8           0        0.802750   -0.908150   -1.184265
      3          8           0       -1.311552    0.754733    1.162081
      4          8           0       -1.668789   -0.619103   -0.860329
      5          8           0        0.032499    1.458836   -0.799414
      6          8           0        1.942889    0.392916    0.683988
      7          8           0        0.088845   -1.290604    1.182039
      8          6           0        2.135433    1.666613    0.279877
      9          1           0        3.206035    1.932672    0.056954
     10          1           0        1.803324    2.427149    1.033647
     11          6           0        1.319252    1.907173   -0.999737
     12          1           0        1.810068    1.346183   -1.817445
     13          1           0        1.300437    2.977256   -1.284307
     14          6           0       -2.848993   -0.145685   -0.328048
     15          1           0       -3.560427    0.136556   -1.127834
     16          1           0       -3.346475   -0.919820    0.291441
     17          6           0       -2.500677    1.061042    0.559295
     18          1           0       -2.433046    1.968430   -0.076383
     19          1           0       -3.300748    1.239754    1.304957
     20          1           0        1.003222   -1.124284    1.415960
     21          1           0        1.668814   -0.774318   -0.791985
 ---------------------------------------------------------------------
                    Distance matrix (angstroms):
                    1          2          3          4          5
     1  Si   0.000000
     2  O    1.751925   0.000000
     3  O    1.817585   3.569424   0.000000
     4  O    1.749188   2.509380   2.470867   0.000000
     5  O    1.752216   2.518734   2.479859   2.686247   0.000000
     6  O    2.332170   2.546185   3.309210   4.056269   2.643153
     7  O    1.730001   2.501065   2.478893   2.776951   3.389506
     8  C    2.959373   3.247947   3.673080   4.582213   2.372840
     9  H    3.984935   3.922585   4.797649   5.578250   3.321026
    10  H    3.402899   4.128499   3.537785   4.992231   2.726456
    11  C    2.707733   2.868252   3.594816   3.915340   1.377268
    12  H    3.069989   2.549043   4.355674   4.108633   2.051542
    13  H    3.651361   3.918428   4.212708   4.682932   2.036758
    14  C    2.641453   3.827490   2.322705   1.378524   3.331617
    15  H    3.519974   4.486859   3.268530   2.054476   3.842578
    16  H    3.244390   4.403852   2.775437   2.057094   4.273808
    17  C    2.616339   4.222600   1.367916   2.351650   2.901950
    18  H    3.019708   4.469059   2.065091   2.809623   2.619422
    19  H    3.605067   5.258176   2.052452   3.287416   3.948026
    20  H    2.156856   2.616883   2.992213   3.546315   3.538742
    21  H    2.154972   0.960137   3.878009   3.341910   2.768494
                    6          7          8          9         10
     6  O    0.000000
     7  O    2.553385   0.000000
     8  C    1.350067   3.707769   0.000000
     9  H    2.087955   4.623007   1.125465   0.000000
    10  H    2.068779   4.096724   1.121107   1.779336   0.000000
    11  C    2.348793   4.061997   1.536696   2.162683   2.153916
    12  H    2.680209   4.348810   2.146461   2.409578   3.049140
    13  H    3.311456   5.075967   2.204921   2.553711   2.434835
    14  C    4.927112   3.496011   5.338398   6.413358   5.487963
    15  H    5.799561   4.548569   6.063460   7.100335   6.220019
    16  H    5.463949   3.568202   6.061442   7.150320   6.186558
    17  C    4.495244   3.552981   4.683835   5.794709   4.540449
    18  H    4.712666   4.308696   4.592278   5.640771   4.403342
    19  H    5.347753   4.231685   5.548429   6.661522   5.247386
    20  H    1.928900   0.958367   3.218958   4.005529   3.660465
    21  H    1.901591   2.580625   2.706431   3.226692   3.687875
                   11         12         13         14         15
    11  C    0.000000
    12  H    1.106461   0.000000
    13  H    1.107434   1.790072   0.000000
    14  C    4.694641   5.113787   5.280621   0.000000
    15  H    5.192567   5.548061   5.632234   1.107003   0.000000
    16  H    5.606071   6.014325   6.266097   1.109297   1.782147
    17  C    4.211695   4.930793   4.638880   1.537821   2.196394
    18  H    3.864722   4.628445   4.051630   2.169292   2.394222
    19  H    5.205906   5.990088   5.558246   2.188659   2.683831
    20  H    3.889113   4.148387   4.919594   4.340366   5.374709
    21  H    2.712149   2.359670   3.801630   4.584866   5.318595
                   16         17         18         19         20
    16  H    0.000000
    17  C    2.170469   0.000000
    18  H    3.051497   1.109961   0.000000
    19  H    2.386014   1.108180   1.786610   0.000000
    20  H    4.497356   4.217444   4.857974   4.911737   0.000000
    21  H    5.133041   4.751754   4.985982   5.757621   2.332490
                   21
    21  H    0.000000
 Stoichiometry    C4H10O6Si(2-)
 Framework group  C1[X(C4H10O6Si)]
 Deg. of freedom    57
 Full point group                 C1      NOp   1
 Largest Abelian subgroup         C1      NOp   1
 Largest concise Abelian subgroup C1      NOp   1
                         Standard orientation:                         
 ---------------------------------------------------------------------
 Center     Atomic      Atomic             Coordinates (Angstroms)
 Number     Number       Type             X           Y           Z
 ---------------------------------------------------------------------
      1         14           0        0.146676    0.409309   -0.063354
      2          8           0       -0.718731    1.269562   -1.320444
      3          8           0        1.062502   -0.489042    1.224219
      4          8           0        1.629632    0.449153   -0.990129
      5          8           0       -0.505308   -1.130520   -0.586906
      6          8           0       -2.036718    0.565676    0.741233
      7          8           0        0.182223    1.811865    0.948810
      8          6           0       -2.541831   -0.670139    0.540477
      9          1           0       -3.654735   -0.702449    0.375943
     10          1           0       -2.359588   -1.369482    1.397559
     11          6           0       -1.869596   -1.282899   -0.698095
     12          1           0       -2.255814   -0.746563   -1.585470
     13          1           0       -2.115879   -2.356256   -0.814975
     14          6           0        2.691438   -0.209436   -0.407757
     15          1           0        3.276206   -0.767110   -1.164395
     16          1           0        3.386542    0.505427    0.078392
     17          6           0        2.115311   -1.155126    0.659314
     18          1           0        1.805598   -2.102932    0.171714
     19          1           0        2.887629   -1.408845    1.412450
     20          1           0       -0.732819    1.904726    1.218146
     21          1           0       -1.571345    1.405205   -0.900311
 ---------------------------------------------------------------------
 Rotational constants (GHZ):           1.6704694           0.8562732           0.7836898
 Standard basis: def2TZVPP (5D, 7F)
 There are   558 symmetry adapted cartesian basis functions of A   symmetry.
 There are   492 symmetry adapted basis functions of A   symmetry.
   492 basis functions,   749 primitive gaussians,   558 cartesian basis functions
    49 alpha electrons       49 beta electrons
       nuclear repulsion energy       877.3803293332 Hartrees.
 NAtoms=   21 NActive=   21 NUniq=   21 SFac= 1.00D+00 NAtFMM=   60 NAOKFM=F Big=F
 Integral buffers will be    131072 words long.
 Raffenetti 2 integral format.
 Two-electron integral symmetry is turned on.
 Nuclear repulsion after empirical dispersion term =      877.3682875707 Hartrees.
 One-electron integrals computed using PRISM.
   1 Symmetry operations used in ECPInt.
 ECPInt:  NShTT=   17020 NPrTT=   47563 LenC2=   16209 LenP2D=   35126.
 LDataN:  DoStor=T MaxTD1= 6 Len=  172
 NBasis=   492 RedAO= T EigKep=  2.54D-04  NBF=   492
 NBsUse=   492 1.00D-06 EigRej= -1.00D+00 NBFU=   492
 Initial guess from the checkpoint file:  "PbiLmL_to_HbiL2_TSOpt_DirectNofreezing.chk"
 B after Tr=     0.000000    0.000000    0.000000
         Rot=    0.995837    0.087873   -0.014275   -0.019570 Ang=  10.46 deg.
 ExpMin= 7.01D-02 ExpMax= 4.48D+04 ExpMxC= 1.53D+03 IAcc=3 IRadAn=         5 AccDes= 0.00D+00
 Harris functional with IExCor= 4639 and IRadAn=       5 diagonalized for initial guess.
 HarFok:  IExCor= 4639 AccDes= 0.00D+00 IRadAn=         5 IDoV= 1 UseB2=F ITyADJ=14
 ICtDFT=  3500011 ScaDFX=  1.000000  1.000000  1.000000  1.000000
 FoFCou: FMM=F IPFlag=           0 FMFlag=      100000 FMFlg1=           0
         NFxFlg=           0 DoJE=T BraDBF=F KetDBF=T FulRan=T
         wScrn=  0.000000 ICntrl=       500 IOpCl=  0 I1Cent=   200000004 NGrid=           0
         NMat0=    1 NMatS0=      1 NMatT0=    0 NMatD0=    1 NMtDS0=    0 NMtDT0=    0
 Petite list used in FoFCou.
 Requested convergence on RMS density matrix=1.00D-08 within 128 cycles.
 Requested convergence on MAX density matrix=1.00D-06.
 Requested convergence on             energy=1.00D-06.
 No special actions if energy rises.
 Integral accuracy reduced to 1.0D-05 until final iterations.
 Initial convergence to 1.0D-05 achieved.  Increase integral accuracy.
 SCF Done:  E(RwB97XD) =  -899.446397834     A.U. after   15 cycles
            NFock= 15  Conv=0.26D-08     -V/T= 2.0034
 DoSCS=F DFT=T ScalE2(SS,OS)=  1.000000  1.000000
 Range of M.O.s used for correlation:     1   492
 NBasis=   492 NAE=    49 NBE=    49 NFC=     0 NFV=     0
 NROrb=    492 NOA=    49 NOB=    49 NVA=   443 NVB=   443

 **** Warning!!: The largest alpha MO coefficient is  0.11393085D+02

   1 Symmetry operations used in ECPInt.
 ECPInt:  NShTT=   17020 NPrTT=   47563 LenC2=   16209 LenP2D=   35126.
 LDataN:  DoStor=T MaxTD1= 7 Len=  274
 Symmetrizing basis deriv contribution to polar:
 IMax=3 JMax=2 DiffMx= 0.00D+00
 G2DrvN: will do    22 centers at a time, making    1 passes.
 Calling FoFCou, ICntrl=  3107 FMM=F I1Cent=   0 AccDes= 0.00D+00.
 End of G2Drv F.D. properties file   721 does not exist.
 End of G2Drv F.D. properties file   722 does not exist.
 End of G2Drv F.D. properties file   788 does not exist.
          IDoAtm=111111111111111111111
          Differentiating once with respect to electric field.
                with respect to dipole field.
          Differentiating once with respect to nuclear coordinates.
 CalDSu exits because no D1Ps are significant.
          There are    66 degrees of freedom in the 1st order CPHF.  IDoFFX=6 NUNeed=     3.
     63 vectors produced by pass  0 Test12= 3.29D-14 1.52D-09 XBig12= 4.34D+01 1.48D+00.
 AX will form    63 AO Fock derivatives at one time.
     63 vectors produced by pass  1 Test12= 3.29D-14 1.52D-09 XBig12= 3.92D+00 3.36D-01.
     63 vectors produced by pass  2 Test12= 3.29D-14 1.52D-09 XBig12= 8.98D-02 3.91D-02.
     63 vectors produced by pass  3 Test12= 3.29D-14 1.52D-09 XBig12= 1.37D-03 7.29D-03.
     63 vectors produced by pass  4 Test12= 3.29D-14 1.52D-09 XBig12= 1.69D-05 4.34D-04.
     63 vectors produced by pass  5 Test12= 3.29D-14 1.52D-09 XBig12= 1.66D-07 4.31D-05.
     63 vectors produced by pass  6 Test12= 3.29D-14 1.52D-09 XBig12= 1.35D-09 3.65D-06.
     36 vectors produced by pass  7 Test12= 3.29D-14 1.52D-09 XBig12= 9.75D-12 3.00D-07.
      4 vectors produced by pass  8 Test12= 3.29D-14 1.52D-09 XBig12= 6.52D-14 2.58D-08.
      3 vectors produced by pass  9 Test12= 3.29D-14 1.52D-09 XBig12= 1.24D-15 3.89D-09.
 InvSVY:  IOpt=1 It=  1 EMax= 2.66D-15
 Solved reduced A of dimension   484 with    66 vectors.
 Isotropic polarizability for W=    0.000000      108.62 Bohr**3.
 End of Minotr F.D. properties file   721 does not exist.
 End of Minotr F.D. properties file   722 does not exist.
 End of Minotr F.D. properties file   788 does not exist.
   1 Symmetry operations used in ECPInt.
 ECPInt:  NShTT=   17020 NPrTT=   47563 LenC2=   16209 LenP2D=   35126.
 LDataN:  DoStor=T MaxTD1= 8 Len=  415
 Calling FoFJK, ICntrl=    100127 FMM=F ISym2X=0 I1Cent= 0 IOpClX= 0 NMat=1 NMatS=1 NMatT=0.
 ***** Axes restored to original set *****
 -------------------------------------------------------------------
 Center     Atomic                   Forces (Hartrees/Bohr)
 Number     Number              X              Y              Z
 -------------------------------------------------------------------
      1       14           0.012622472   -0.016253872   -0.006365920
      2        8          -0.004806678   -0.005524380   -0.012391693
      3        8          -0.000408344    0.002317479    0.001348712
      4        8          -0.000890807    0.000284602    0.001175382
      5        8          -0.001549952    0.008741605    0.001456737
      6        8           0.004571041    0.010230928    0.008335546
      7        8          -0.006360296   -0.001068739    0.008105249
      8        6           0.002654835    0.004415150   -0.000536452
      9        1           0.000146826   -0.001276320    0.000076409
     10        1          -0.000180066   -0.000607966   -0.000000823
     11        6          -0.002766232   -0.002779505    0.000053518
     12        1           0.000111094    0.000872901   -0.001277872
     13        1           0.001091049    0.000358825    0.001294254
     14        6           0.000883151    0.000065052   -0.000540644
     15        1          -0.000281392    0.000042172    0.000011383
     16        1          -0.000116599   -0.000014777    0.000170471
     17        6           0.000068357    0.000016092   -0.000013590
     18        1           0.000000869    0.000046615    0.000040434
     19        1          -0.000193273    0.000094259    0.000008702
     20        1          -0.002061007    0.000092098   -0.000974392
     21        1          -0.002535048   -0.000052220    0.000024590
 -------------------------------------------------------------------
 Cartesian Forces:  Max     0.016253872 RMS     0.004228905
 FormGI is forming the generalized inverse of G from B-inverse, IUseBI=4.

 GradGradGradGradGradGradGradGradGradGradGradGradGradGradGradGradGradGrad
 Berny optimization.
 Internal  Forces:  Max     0.040597921 RMS     0.007558541
 Search for a saddle point.
 Step number   2 out of a maximum of  116
 All quantities printed in internal units (Hartrees-Bohrs-Radians)
 Swapping is turned off.
 Second derivative matrix not updated -- analytic derivatives used.
 ITU=  0  0
     Eigenvalues ---   -0.11126   0.00073   0.00144   0.00256   0.00599
     Eigenvalues ---    0.00673   0.01306   0.03261   0.04180   0.04428
     Eigenvalues ---    0.04907   0.04971   0.05105   0.05403   0.05620
     Eigenvalues ---    0.06580   0.07058   0.08019   0.08907   0.09295
     Eigenvalues ---    0.09761   0.10010   0.10184   0.10346   0.10613
     Eigenvalues ---    0.11107   0.11788   0.11901   0.14525   0.15447
     Eigenvalues ---    0.16278   0.16686   0.17855   0.21170   0.22226
     Eigenvalues ---    0.24048   0.24352   0.24864   0.25251   0.25981
     Eigenvalues ---    0.26592   0.27486   0.27884   0.28361   0.28812
     Eigenvalues ---    0.29159   0.29384   0.29548   0.30885   0.36796
     Eigenvalues ---    0.39942   0.42582   0.44752   0.53325   0.54711
     Eigenvalues ---    0.67803   1.85355
 Eigenvectors required to have negative eigenvalues:
                          A9        D2        A21       A13       D6
   1                    0.45700   0.25472  -0.25280  -0.24284   0.23979
                          A8        A7        D5        D3        R4
   1                   -0.23034  -0.22308  -0.21700  -0.20279   0.19267
 RFO step:  Lambda0=1.337738231D-06 Lambda=-6.33424415D-03.
 Linear search not attempted -- option 19 set.
 Iteration  1 RMS(Cart)=  0.03654570 RMS(Int)=  0.00133253
 Iteration  2 RMS(Cart)=  0.00198192 RMS(Int)=  0.00056625
 Iteration  3 RMS(Cart)=  0.00000895 RMS(Int)=  0.00056624
 Iteration  4 RMS(Cart)=  0.00000002 RMS(Int)=  0.00056624
 Variable       Old X    -DE/DX   Delta X   Delta X   Delta X     New X
                                 (Linear)    (Quad)   (Total)
    R1        3.31066   0.00648   0.00000  -0.00657  -0.00657   3.30409
    R2        3.43474   0.00194   0.00000   0.04468   0.04460   3.47934
    R3        3.30549  -0.00015   0.00000  -0.00561  -0.00566   3.29983
    R4        3.31121   0.01410   0.00000   0.03385   0.03385   3.34506
    R5        3.26923   0.00412   0.00000  -0.00262  -0.00262   3.26661
    R6        1.81440  -0.00228   0.00000  -0.00206  -0.00206   1.81233
    R7        2.58499  -0.00011   0.00000  -0.00468  -0.00466   2.58033
    R8        2.60503  -0.00011   0.00000   0.00014   0.00019   2.60523
    R9        2.60266   0.00775   0.00000  -0.00733  -0.00733   2.59533
   R10        2.55126  -0.00781   0.00000  -0.00019  -0.00019   2.55107
   R11        1.81105  -0.00219   0.00000   0.00021   0.00021   1.81126
   R12        2.12682  -0.00018   0.00000  -0.00060  -0.00060   2.12622
   R13        2.11859  -0.00036   0.00000   0.00016   0.00016   2.11875
   R14        2.90393   0.00838   0.00000   0.00485   0.00485   2.90878
   R15        2.09091   0.00055   0.00000   0.00352   0.00352   2.09443
   R16        2.09275  -0.00000   0.00000   0.00140   0.00140   2.09415
   R17        2.09193   0.00018   0.00000   0.00041   0.00041   2.09234
   R18        2.09627   0.00016   0.00000   0.00016   0.00016   2.09643
[...]
 067413,-0.00047172,0.00019192,0.03700686,-0.07284769,-0.13637556,0.003
 81587,-0.00383555,-0.00490559,-0.04408434,0.09068865,0.14830501,-0.002
 37180,-0.03361421,0.01665488,-0.00856158,0.00833492,0.00471778,0.00544
 623,0.00150927,-0.00479620,0.00422513,0.00384406,-0.00018745,-0.242380
 20,-0.06906882,0.03206355,-0.00780022,0.00157274,-0.00247467,-0.002665
 54,0.00022478,-0.00086582,-0.08486425,0.00779161,-0.04281590,-0.019773
 10,-0.00024736,-0.02395649,0.00393536,0.00262671,0.01314401,0.47691250
 ,-0.01908621,-0.01921598,0.01168189,-0.00034226,0.00207711,0.00059625,
 0.00142868,0.00074953,-0.00030346,-0.00038124,-0.00091433,-0.00045400,
 -0.05087238,-0.10602157,0.01728941,0.00893795,-0.03103540,0.04210580,-
 0.00070088,0.00030614,-0.00158049,-0.00162041,-0.06473061,-0.00716414,
 -0.00153733,0.00185816,-0.00530406,-0.00883243,0.00071868,-0.01882272,
 0.00254888,0.57183043,0.00602707,0.01461410,-0.00406080,0.00473244,-0.
 00093564,-0.00383905,0.00198427,0.00128936,-0.00380476,-0.00201489,-0.
 00293755,0.00057360,0.01796042,0.01032533,-0.06543572,-0.00685580,0.02
 637627,-0.01627848,0.00003105,-0.00124437,-0.00012925,-0.03314876,-0.0
 0433408,-0.14104710,0.01208027,-0.00249606,0.00585660,-0.01368117,0.00
 015841,-0.02541024,-0.04288476,-0.00254657,0.48132135,-0.00208172,0.00
 971941,-0.00064739,0.00233594,-0.00025212,-0.00256789,-0.00210725,-0.0
 0121127,0.00176482,-0.00014149,-0.00083679,-0.00029445,-0.03827441,0.0
 0247763,0.03009186,0.00068012,-0.00059800,0.00188736,0.00050032,-0.000
 52394,-0.00035475,0.00529339,-0.00826111,-0.01399992,0.00169860,-0.000
 15751,0.00061428,-0.00039320,0.00030990,-0.00407315,-0.07501389,0.0454
 0646,0.06191895,0.10541120,-0.00117509,-0.00066190,0.00166583,-0.00136
 203,-0.00098745,0.00064387,0.00000241,-0.00005339,0.00009745,0.0005403
 9,0.00018844,-0.00004855,-0.00453891,0.01111095,0.00886452,-0.00031926
 ,0.00174818,-0.00024097,0.00003144,0.00010025,-0.00027308,0.00020708,0
 .00041537,0.00211640,-0.00136815,-0.00013656,-0.00036766,-0.00074134,0
 .00140843,0.00069645,0.04832595,-0.11132850,-0.08466305,-0.05010269,0.
 11627797,0.00150388,-0.00632201,0.00017487,-0.00286040,-0.00004893,0.0
 0227991,0.00121548,0.00065130,-0.00063740,0.00021615,0.00077429,0.0001
 7223,0.01818006,0.00477196,-0.00183578,-0.00048113,0.00159071,0.004148
 32,-0.00021864,0.00044658,0.00033363,0.01095978,-0.01986990,-0.0227616
 5,-0.00113694,-0.00012279,0.00144911,-0.00337965,0.00031321,-0.0054369
 7,0.05806674,-0.07997704,-0.16745396,-0.07766652,0.09279520,0.18461606
 ,-0.00216866,0.00364140,-0.00254880,0.00144040,-0.00067678,-0.00064575
 ,-0.00115858,0.00003793,0.00107747,-0.00096902,-0.00083428,0.00000182,
 -0.01345074,-0.04315213,0.01408592,-0.00056361,0.00123653,-0.00528846,
 0.00052161,-0.00006641,0.00029593,0.00317627,0.01706425,0.00067955,-0.
 00033901,-0.00087914,0.00117052,0.00066687,-0.00066652,0.00037284,-0.0
 4622023,0.02401482,-0.00591267,0.00083376,0.01076691,-0.00403030,0.058
 14862,0.00289508,0.00464656,-0.00316639,-0.00036682,-0.00169122,-0.000
 12623,-0.00180952,0.00036610,0.00089863,-0.00162235,-0.00051816,0.0000
 0309,-0.01817785,-0.01481343,0.00763733,0.00078714,-0.00015869,0.00441
 407,-0.00033212,-0.00062980,0.00058357,-0.00127184,-0.00701106,-0.0054
 0527,0.00170498,0.00020046,0.00074915,-0.00046482,0.00167641,0.0012677
 3,0.02272940,-0.24294295,0.04733585,0.00447669,-0.01730925,0.00378747,
 -0.00950544,0.27755287,-0.00069521,-0.00140520,-0.00069711,-0.00109110
 ,-0.00001006,0.00142917,0.00069016,-0.00020184,-0.00026006,0.00023430,
 0.00016048,0.00009431,0.00461147,0.00730748,-0.00003570,-0.00299400,0.
 00264585,-0.00608007,0.00036406,0.00041389,0.00016411,0.00157546,0.028
 03699,-0.00214556,-0.00113892,-0.00103435,0.00052608,0.00116782,-0.000
 82873,0.00040456,-0.00501448,0.04424622,-0.06163595,0.00216441,-0.0214
 7338,0.00632863,0.00071585,-0.05782576,0.06253507,-0.04804447,-0.00828
 394,-0.01448110,0.00204506,0.00010306,-0.00100296,-0.04067199,-0.01015
 051,-0.02314905,-0.21350927,0.04360341,0.04792895,0.00449555,0.0042292
 6,0.00066012,0.00110041,0.00142331,0.00073380,0.00321053,0.00056285,0.
 00411649,0.00004163,-0.00104724,-0.00018589,0.00061056,0.00022797,0.00
 001003,-0.00008582,0.00049402,0.00029230,-0.00204026,-0.00054095,0.001
 06531,0.00024477,-0.00017199,-0.00021777,0.00040271,0.00079554,-0.0001
 3640,0.54752055,0.00599625,0.00803864,0.00800361,-0.00225321,0.0003514
 3,0.00014870,-0.00030551,0.00508302,-0.00990293,0.06425279,-0.09703808
 ,-0.02527508,-0.00112432,-0.00208223,-0.00088763,-0.00018566,-0.000896
 98,-0.00016869,-0.00099191,-0.00157348,-0.00073191,-0.00003578,0.00048
 780,0.00005283,-0.00011548,-0.00006685,0.00002015,0.00002524,-0.000217
 42,-0.00009913,0.00024846,-0.00033193,-0.00023352,0.00010617,0.0000965
 3,-0.00003160,-0.00012559,-0.00018275,0.00002841,0.00711134,0.47850533
 ,0.00486997,0.00782655,0.01045750,-0.00322182,-0.00018847,0.00080408,-
 0.02693515,-0.01651144,-0.02687986,0.06823969,-0.03068427,-0.10529128,
 -0.00134590,-0.00180767,-0.00066012,-0.00039602,-0.00053110,-0.0003881
 1,-0.00128065,-0.00041080,-0.00285152,-0.00002085,0.00051587,0.0000849
 2,-0.00018324,-0.00006834,-0.00002234,0.00006357,-0.00024192,-0.000171
 93,0.00056081,0.00010543,-0.00043737,0.00007320,0.00004834,-0.00001890
 ,-0.00014045,-0.00025885,0.00005474,0.02851123,-0.05175256,0.50718709,
 0.00590635,0.00556323,0.00232075,-0.00192687,-0.00003417,0.00047950,-0
 .00070371,-0.00202972,-0.00178892,-0.04037944,0.01203121,-0.01308587,-
 0.00073671,-0.00112024,0.00044841,-0.00048989,-0.00058987,-0.00002107,
 -0.00158004,0.00014469,-0.00132114,0.00012143,0.00048132,-0.00011258,-
 0.00020742,-0.00010054,0.00005816,0.00003791,-0.00012926,-0.00006033,0
 .00047180,0.00013459,-0.00014733,-0.00007583,0.00007423,0.00006303,-0.
 00008998,-0.00024462,0.00004308,-0.11758645,0.02709024,-0.09483774,0.1
 5182515,-0.00241220,-0.00357362,-0.00262922,0.00083176,0.00009051,-0.0
 0012980,-0.00387415,-0.00262138,-0.00359013,0.01897272,-0.00129928,0.0
 0350004,0.00023423,0.00035698,0.00017140,0.00010528,0.00028782,0.00008
 997,0.00041079,0.00044564,0.00039247,0.00001294,-0.00017126,-0.0000133
 5,0.00005525,0.00003144,-0.00000454,-0.00000272,0.00008053,0.00003471,
 -0.00014298,-0.00006968,0.00006990,0.00000398,-0.00002455,-0.00000176,
 0.00002400,0.00007302,-0.00000887,0.02995545,-0.06371531,0.04314546,-0
 .04134572,0.06597387,0.00322729,-0.00117409,-0.00201474,-0.00007571,0.
 00012650,0.00021699,-0.00438120,-0.00451213,-0.00159397,0.01010018,-0.
 00453284,0.01744991,-0.00063499,-0.00047307,0.00064503,-0.00039224,-0.
 00021653,0.00014883,-0.00056217,0.00041710,0.00008267,0.00012001,0.000
 25636,-0.00013566,-0.00015957,-0.00006722,0.00005368,0.00002129,-0.000
 03025,-0.00001251,0.00036173,0.00016030,-0.00010017,-0.00012026,0.0000
 3134,0.00009315,-0.00005014,-0.00015398,0.00003806,-0.09760279,0.04078
 278,-0.17482874,0.10891422,-0.04684520,0.18393642,0.00526693,0.0011676
 4,0.00759521,-0.00167950,0.00034761,-0.00038615,0.00129218,0.00032266,
 -0.00101533,-0.03614133,-0.01212374,0.02536620,-0.00141732,-0.00128432
 ,-0.00026044,-0.00020028,-0.00008008,-0.00032371,0.00001776,0.00054964
 ,-0.00097082,0.00004812,0.00014493,0.00005585,-0.00014788,-0.00001939,
 -0.00001273,0.00001782,-0.00008598,-0.00005466,0.00057808,0.00007199,-
 0.00024585,-0.00007892,0.00005872,0.00006568,-0.00012105,-0.00018861,0
 .00002565,-0.07634864,-0.06102499,0.03673074,0.00886547,0.01187986,-0.
 01032045,0.10043551,0.00227922,-0.00006611,0.00076935,-0.00032073,0.00
 016787,0.00005599,-0.00003987,0.00306917,-0.00134717,0.00235916,0.0176
 7559,-0.00655813,-0.00062800,0.00005744,0.00000864,-0.00018823,0.00006
 577,-0.00012897,-0.00034729,0.00049904,-0.00057395,0.00006913,0.000025
 10,-0.00000061,-0.00011239,-0.00002081,0.00000869,0.00000498,-0.000003
 86,-0.00000684,0.00040717,0.00019141,-0.00012123,-0.00010840,0.0000296
 0,0.00007126,-0.00001773,-0.00005786,0.00000392,-0.05996376,-0.1616198
 8,0.08336709,-0.00264337,-0.00613455,0.00520239,0.06726732,0.17319105,
 -0.00516923,-0.00151758,-0.00470073,0.00114240,-0.00015783,0.00013653,
 0.00144465,0.00135109,0.00131136,0.02419485,0.00165830,-0.00576071,0.0
 0091364,0.00092427,0.00013804,0.00023857,0.00017930,0.00019216,0.00044
 614,-0.00031010,0.00090853,-0.00005120,-0.00020168,-0.00002186,0.00013
 071,0.00003928,-0.00000267,-0.00001847,0.00008940,0.00005929,-0.000462
 17,-0.00006661,0.00018609,0.00004090,-0.00003843,-0.00004112,0.0000857
 0,0.00014161,-0.00002760,0.04048462,0.08770236,-0.11430155,0.00604930,
 0.02067393,-0.01477800,-0.06090966,-0.09355752,0.12691378,-0.03184222,
 0.02666400,0.02453263,-0.00039695,-0.00115062,-0.00182188,-0.23278876,
 0.04580364,-0.06208865,-0.01911857,0.02592185,0.01019707,0.00304281,0.
 00330277,-0.00566798,0.00195708,0.00049120,-0.00064577,0.00364743,-0.0
 0357112,-0.00075134,-0.00076128,-0.00094579,0.00060043,0.00076631,0.00
 022668,-0.00028588,-0.00016892,0.00002267,0.00007038,-0.00219509,-0.00
 013322,-0.00040150,0.00097796,-0.00013088,-0.00065396,0.00051191,0.000
 79184,-0.00025189,-0.06508558,-0.02790113,-0.01274801,-0.00324120,-0.0
 1607051,-0.00955298,-0.00168800,-0.00756387,-0.00657442,0.52944805,0.0
 1711048,-0.00524454,-0.00799070,-0.00099816,-0.00025250,0.00031857,0.0
 3407848,-0.07632729,0.01242346,0.01318336,-0.01500506,-0.01856672,-0.0
 0007746,-0.00350451,0.00467690,-0.00125332,-0.00067466,0.00086279,0.00
 112188,-0.00358753,-0.00066038,0.00059565,0.00113971,-0.00057106,-0.00
 022114,-0.00019768,0.00016852,0.00013116,-0.00012624,-0.00013288,-0.00
 008635,-0.00025345,0.00063992,-0.00006789,-0.00005231,0.00007532,-0.00
 028852,-0.00038248,0.00015735,-0.01821213,-0.14064968,-0.03281753,0.00
 439331,0.00941370,0.01269881,-0.00618859,-0.02320826,-0.01445412,-0.03
 684576,0.49752217,-0.00030829,0.00307804,0.01978355,-0.00035781,0.0001
 1404,-0.00112407,-0.08062381,0.01839928,-0.12123077,0.00708577,-0.0273
 1954,-0.02452396,0.00244027,0.00455916,-0.00718684,0.00151933,0.000836
 44,-0.00082357,0.00248244,-0.00503778,0.00044556,-0.00056614,-0.001139
 89,0.00055823,0.00036183,0.00029106,-0.00022133,-0.00008753,0.00015728
 ,0.00007485,-0.00035283,-0.00046334,-0.00069216,0.00036002,0.00007766,
 -0.00021999,0.00027030,0.00050656,-0.00021609,0.00015574,-0.03562790,-
 0.09061476,-0.00669844,-0.01524919,-0.01029437,0.00600786,0.01765246,0
 .00827698,-0.05357925,-0.02594912,0.50110633,0.00217352,0.00108060,-0.
 00525896,-0.00001126,-0.00043704,0.00030783,-0.00928752,0.03115777,-0.
 02456122,0.00146915,0.00037394,0.00022216,0.00029100,-0.00076343,0.000
 40634,-0.00012866,-0.00043856,0.00037628,-0.00143363,0.00137618,0.0005
 4486,0.00003592,0.00028393,-0.00017217,0.00000201,-0.00006304,0.000062
 04,0.00002823,-0.00003656,0.00000024,-0.00063876,-0.00057182,0.0000347
 5,0.00031979,0.00001792,-0.00015823,0.00002165,0.00004944,0.00000887,-
 0.00173281,-0.00760914,0.00475162,0.00015464,0.00005556,0.00015329,0.0
 0036667,-0.00171718,-0.00157107,-0.04995726,-0.02475546,0.02116119,0.0
 6000073,-0.00403207,-0.00023712,0.00608438,0.00039618,0.00038077,-0.00
 045728,0.02018357,-0.00647512,0.01354872,0.00098200,0.00225412,-0.0013
 9346,-0.00093835,0.00184207,-0.00201446,0.00053198,0.00071919,-0.00045
 217,0.00146580,-0.00102431,-0.00039008,-0.00023762,-0.00064565,0.00027
 874,0.00011521,0.00013335,-0.00011278,-0.00004454,0.00010669,0.0000696
 2,0.00011100,0.00027798,-0.00021685,-0.00001806,0.00001785,-0.00002204
 ,0.00013993,0.00017445,-0.00007409,-0.00809886,-0.02300144,0.01664805,
 -0.00089657,0.00127249,-0.00087144,-0.00136507,-0.00435391,-0.00323414
 ,-0.02482654,-0.18430690,0.08407389,0.01792936,0.20865719,0.00367209,-
 0.00153843,-0.00585163,-0.00014886,-0.00013701,0.00046285,-0.01843747,
 0.01877914,-0.01021498,0.00037719,0.00193039,0.00138996,0.00079177,-0.
 00169692,0.00112040,-0.00056976,-0.00060346,0.00033235,-0.00138258,0.0
 0138891,0.00046359,0.00016138,0.00066296,-0.00018444,-0.00011592,-0.00
 011497,0.00007695,0.00005987,-0.00014263,-0.00009497,0.00009901,0.0000
 1000,0.00028161,-0.00009559,-0.00001976,0.00005547,-0.00012551,-0.0002
 1705,0.00008715,-0.00382564,-0.01575524,0.00859616,0.00079351,0.000681
 96,0.00178189,-0.00089755,-0.00420188,-0.00029449,0.01963096,0.0917192
 7,-0.11298525,-0.00831683,-0.10928894,0.12902410,0.00284731,-0.0058538
 6,-0.00761766,-0.00017666,0.00042883,0.00055785,-0.04430108,0.01674602
 ,0.01177176,0.00223388,-0.00078519,-0.00053031,-0.00186119,-0.00123348
 ,0.00222430,-0.00088685,-0.00029600,0.00006754,-0.00113635,0.00251156,
 -0.00050066,0.00022643,0.00060344,-0.00003224,-0.00035727,-0.00016660,
 0.00004767,0.00007569,-0.00018662,-0.00012202,0.00123645,0.00040337,-0
 .00027166,-0.00028944,0.00005782,0.00018056,-0.00018333,-0.00038241,0.
 00011660,0.00523799,-0.00276239,-0.00233984,-0.00029208,0.00125559,0.0
 0079235,0.00115544,0.00125908,-0.00054108,-0.13227293,0.01831596,0.101
 38827,-0.00189004,-0.00111148,0.00802235,0.17027902,-0.00178038,-0.000
 78889,0.00057780,0.00042352,0.00016330,-0.00004433,0.01122887,-0.00057
 367,-0.00381964,0.00076866,-0.00427174,-0.00363275,-0.00027611,0.00101
 566,-0.00066221,0.00017453,0.00024040,-0.00004952,0.00047438,-0.000569
 43,0.00038803,-0.00009768,-0.00022686,0.00007139,0.00004241,0.00004480
 ,-0.00003894,-0.00001194,0.00005136,0.00002635,0.00010676,0.00030999,-
 0.00020190,-0.00003899,-0.00001030,0.00001523,0.00007903,0.00005146,-0
 .00002508,0.01881482,-0.00239367,-0.01667590,-0.00113543,-0.00023681,-
 0.00080295,0.00034422,0.00060637,0.00094397,0.01572996,-0.05429105,-0.
 01904253,-0.01613816,0.00441561,0.01842827,-0.02866836,0.05655066,-0.0
 0332749,0.00022575,-0.00178324,0.00056350,-0.00016534,-0.00001465,-0.0
 1167105,0.00256782,0.01879508,0.00025473,-0.00498203,-0.00131903,0.001
 26533,-0.00000781,0.00024989,0.00024481,0.00015968,0.00016526,0.000275
 66,0.00012927,0.00029167,-0.00000417,-0.00018582,-0.00005615,0.0001538
 8,0.00003266,0.00001085,-0.00003082,0.00009173,0.00006547,-0.00067419,
 -0.00041479,0.00029414,0.00013919,-0.00003649,-0.00007882,0.00004730,0
 .00018007,-0.00002859,0.01585861,0.00362820,-0.01083152,-0.00111471,-0
 .00020728,-0.00060174,-0.00055602,-0.00065546,0.00187196,0.09962072,-0
 .02262436,-0.16019609,0.01217622,-0.00229098,-0.01391631,-0.11322564,0
 .02455195,0.16712747,-0.00352018,0.00421160,-0.01274780,-0.00204477,-0
 .00094340,0.00212907,0.00148072,0.00009057,0.00134491,0.00032454,0.000
 05660,0.00048294,-0.00141870,-0.00056843,-0.00001832,-0.00739676,-0.00
 086289,0.00134939,-0.37458387,-0.14200632,-0.18626850,-0.00238589,-0.0
 0364152,-0.00091800,0.00017916,-0.00013291,-0.00009050,-0.00011721,0.0
 0106807,0.00029378,0.00088347,0.00124545,-0.00019205,-0.00004280,-0.00
 000349,0.00001425,-0.00034340,0.00018503,-0.00036085,0.00018430,-0.000
 07903,-0.00005741,0.00004614,0.00000661,0.00010879,-0.00002039,-0.0000
 1094,0.00002593,-0.00050956,0.00013351,-0.00048590,0.00017694,-0.00025
 048,0.00025528,0.00025722,-0.00006290,-0.00001000,0.38846803,0.0167817
 5,0.00947580,0.01206854,-0.00114909,-0.00229310,0.00123147,0.00002509,
 -0.00382117,-0.00123859,0.00178886,-0.00144957,0.00195896,-0.00172886,
 -0.00086738,-0.00071370,-0.00248884,0.00137285,-0.00214906,-0.15646510
 ,-0.07701682,-0.06602743,0.00027948,-0.00613496,-0.00048899,0.00110446
 ,0.00131493,-0.00075870,-0.00032426,0.00100350,0.00062750,0.00078392,0
 .00077384,0.00038504,0.00011996,-0.00003278,-0.00014610,-0.00031469,0.
 00033920,-0.00033151,-0.00072113,0.00039545,0.00021968,0.00030082,-0.0
 0013894,0.00000904,0.00000557,-0.00004722,-0.00005133,0.00005933,-0.00
 008320,-0.00000231,0.00012929,-0.00011924,0.00007681,-0.00007186,-0.00
 005822,-0.00001026,0.14127387,0.07557865,-0.02349697,0.00042041,-0.011
 09272,0.00287472,0.00045814,0.00059971,0.00037790,-0.00052396,-0.00031
 297,-0.00117638,0.00122267,-0.00138757,0.00099718,-0.00019600,0.000125
 60,0.00004601,-0.00293597,-0.00049412,-0.17291362,-0.05312064,-0.10022
 902,-0.00119140,0.00061509,-0.00170449,-0.00078047,-0.00095375,0.00046
 136,0.00005151,-0.00101672,-0.00006741,-0.00008148,0.00044514,-0.00021
 258,0.00002491,0.00003436,0.00000633,0.00001154,-0.00015338,0.00005621
 ,0.00033276,0.00006707,-0.00051884,-0.00025595,0.00004197,0.00002461,-
 0.00007663,-0.00002494,0.00004964,-0.00000478,-0.00002271,-0.00022957,
 -0.00009068,0.00005324,-0.00004308,0.00010774,0.00001481,0.00000634,0.
 19410785,0.05523705,0.11751647,-0.02167726,0.00645334,-0.00204086,-0.4
 4204237,-0.00282430,-0.17394879,0.00058377,-0.00040782,0.00017422,-0.0
 0276320,0.00100745,0.00140130,0.00013392,-0.00136051,-0.00003920,-0.00
 530181,-0.00120994,-0.00243277,0.00264489,-0.00030515,-0.00370686,-0.0
 0046847,-0.00100685,0.00038762,-0.00003151,-0.00030368,-0.00011886,0.0
 0003176,0.00041798,-0.00000252,0.00083588,0.00042694,-0.00007809,0.000
 20312,-0.00016905,0.00033794,-0.00011617,-0.00004874,-0.00003487,0.000
 01122,-0.00031633,-0.00029372,-0.00011926,0.00004428,0.00005336,-0.000
 20066,0.00001572,0.00009989,-0.00032522,-0.00006901,-0.00017301,0.0000
 3970,-0.00003539,0.00005230,0.00009776,0.00002278,0.00001414,0.0003830
 2,0.00061140,0.00113624,0.46808088,0.01484711,0.00641663,0.00121072,-0
 .01382347,-0.01122234,-0.01509841,-0.00040250,-0.00061769,0.00010971,0
 .00164624,-0.00046771,-0.00069973,-0.00278203,-0.00305394,-0.00109194,
 -0.00043907,0.00186155,0.00447279,0.00092752,-0.00288724,-0.00134090,-
 0.00112314,-0.00497680,0.00020463,0.00052699,0.00029528,-0.00028464,-0
 .00006311,0.00117316,0.00043483,0.00199410,-0.00224888,-0.00126337,-0.
 00044342,-0.00079661,0.00124962,-0.00047757,0.00061714,0.00021831,-0.0
 0013051,0.00081149,0.00007237,0.00005588,-0.00004060,-0.00000492,0.000
 20061,-0.00006595,-0.00011415,0.00012551,0.00007178,0.00008575,0.00007
 640,-0.00008808,0.00003859,-0.00006343,-0.00002896,0.00001348,0.000291
 01,0.00180839,0.00033811,-0.00094313,0.01343938,0.01857382,-0.00316549
 ,0.00784493,-0.19876581,-0.01048729,-0.10829157,-0.00089116,0.00038920
 ,-0.00059611,0.00414609,-0.00099588,-0.00108140,-0.00006376,-0.0009517
 6,-0.00125890,-0.00027047,0.00535725,-0.00239227,-0.00327813,0.0000538
 0,-0.00068744,-0.00122035,-0.00458745,0.00316604,0.00095194,0.00066111
 ,-0.00052743,-0.00010949,0.00178975,-0.00012739,-0.00110207,0.00045678
 ,0.00202421,0.00074003,0.00008997,-0.00117311,-0.00007263,-0.00019822,
 -0.00059135,0.00045166,0.00003210,0.00063237,0.00027412,-0.00012248,-0
 .00011131,0.00018281,0.00003690,-0.00011563,0.00037610,0.00004868,0.00
 031332,-0.00007654,0.00006206,-0.00008733,-0.00009586,-0.00002206,-0.0
 0005197,0.00103714,0.00010390,-0.00255392,0.17921256,0.01144914,0.1056
 6627\\0.00000059,0.00000124,-0.00000023,0.00000118,-0.00000066,0.00000
 087,0.,-0.00000022,-0.00000052,0.00000005,-0.00000107,-0.00000030,0.00
 000062,-0.00000063,0.00000086,-0.00000103,0.00000003,0.00000051,0.0000
 0056,-0.00000049,0.00000122,-0.00000042,0.00000122,0.00000053,-0.00000
 057,0.00000104,0.00000080,-0.00000094,0.00000059,0.00000020,-0.0000008
 7,0.00000013,-0.00000060,0.00000078,0.00000151,0.00000048,-0.00000033,
 0.00000019,-0.00000007,0.00000015,-0.00000048,-0.00000094,0.00000060,-
 0.00000135,-0.00000085,0.00000042,-0.00000080,-0.00000055,-0.00000043,
 -0.00000056,-0.00000096,-0.00000052,-0.00000073,-0.00000090,-0.0000003
 9,-0.00000057,-0.00000137,-0.00000008,0.00000137,0.00000077,0.00000062
 ,0.00000024,0.00000105\\\@
 The archive entry for this job was punched.


 Everything starts as somebody's daydream.
                           -- Larry Niven
 Job cpu time:       0 days  6 hours 27 minutes 39.0 seconds.
 Elapsed time:       0 days  1 hours 36 minutes 56.5 seconds.
 File lengths (MBytes):  RWF=    438 Int=      0 D2E=      0 Chk=     20 Scr=      1
 Normal termination of Gaussian 16 at Wed Mar 20 15:21:07 2024.
