 Entering Gaussian System, Link 0=/opt/software/gaussian/g16.c01/g16
 Initial command:
 /opt/software/gaussian/g16.c01/l1.exe "/scratch/arhender/25180052/Gau-55301.inp" -scrdir="/scratch/arhender/25180052/"
 Entering Link 1 = /opt/software/gaussian/g16.c01/l1.exe PID=     55302.
  
 Copyright (c) 1988-2019, Gaussian, Inc.  All Rights Reserved.
  
 This is part of the Gaussian(R) 16 program.  It is based on
 the Gaussian(R) 09 system (copyright 2009, Gaussian, Inc.),
 the Gaussian(R) 03 system (copyright 2003, Gaussian, Inc.),
 the Gaussian(R) 98 system (copyright 1998, Gaussian, Inc.),
 the Gaussian(R) 94 system (copyright 1995, Gaussian, Inc.),
 the Gaussian 92(TM) system (copyright 1992, Gaussian, Inc.),
 the Gaussian 90(TM) system (copyright 1990, Gaussian, Inc.),
 the Gaussian 88(TM) system (copyright 1988, Gaussian, Inc.),
 the Gaussian 86(TM) system (copyright 1986, Carnegie Mellon
 University), and the Gaussian 82(TM) system (copyright 1983,
 Carnegie Mellon University). Gaussian is a federally registered
 trademark of Gaussian, Inc.
  
 This software contains proprietary and confidential information,
 including trade secrets, belonging to Gaussian, Inc.
  
 This software is provided under written license and may be
 used, copied, transmitted, or stored only in accord with that
 written license.
  
 The following legend is applicable only to US Government
 contracts under FAR:
  
                    RESTRICTED RIGHTS LEGEND
  
 Use, reproduction and disclosure by the US Government is
 subject to restrictions as set forth in subparagraphs (a)
 and (c) of the Commercial Computer Software - Restricted
 Rights clause in FAR 52.227-19.
  
 Gaussian, Inc.
 340 Quinnipiac St., Bldg. 40, Wallingford CT 06492
  
  
 ---------------------------------------------------------------
 Warning -- This program may not be used in any manner that
 competes with the business of Gaussian, Inc. or will provide
 assistance to any competitor of Gaussian, Inc.  The licensee
 of this program is prohibited from giving any competitor of
 Gaussian, Inc. access to this program.  By using this program,
 the user acknowledges that Gaussian, Inc. is engaged in the
 business of creating and licensing software in the field of
 computational chemistry and represents and warrants to the
 licensee that it is not a competitor of Gaussian, Inc. and that
 it will not use this program in any manner prohibited above.
 ---------------------------------------------------------------
  

 Cite this work as:
 Gaussian 16, Revision C.01,
 M. J. Frisch, G. W. Trucks, H. B. Schlegel, G. E. Scuseria, 
 M. A. Robb, J. R. Cheeseman, G. Scalmani, V. Barone, 
 G. A. Petersson, H. Nakatsuji, X. Li, M. Caricato, A. V. Marenich, 
 J. Bloino, B. G. Janesko, R. Gomperts, B. Mennucci, H. P. Hratchian, 
 J. V. Ortiz, A. F. Izmaylov, J. L. Sonnenberg, D. Williams-Young, 
 F. Ding, F. Lipparini, F. Egidi, J. Goings, B. Peng, A. Petrone, 
 T. Henderson, D. Ranasinghe, V. G. Zakrzewski, J. Gao, N. Rega, 
 G. Zheng, W. Liang, M. Hada, M. Ehara, K. Toyota, R. Fukuda, 
 J. Hasegawa, M. Ishida, T. Nakajima, Y. Honda, O. Kitao, H. Nakai, 
 T. Vreven, K. Throssell, J. A. Montgomery, Jr., J. E. Peralta, 
 F. Ogliaro, M. J. Bearpark, J. J. Heyd, E. N. Brothers, K. N. Kudin, 
 V. N. Staroverov, T. A. Keith, R. Kobayashi, J. Normand, 
 K. Raghavachari, A. P. Rendell, J. C. Burant, S. S. Iyengar, 
 J. Tomasi, M. Cossi, J. M. Millam, M. Klene, C. Adamo, R. Cammi, 
 J. W. Ochterski, R. L. Martin, K. Morokuma, O. Farkas, 
 J. B. Foresman, and D. J. Fox, Gaussian, Inc., Wallingford CT, 2019.
 
 ******************************************
 Gaussian 16:  ES64L-G16RevC.01  3-Jul-2019
                14-Feb-2024 
 ******************************************
 %chk=QL_MonoToBi_DeprotonatedLigandAttacking_TSOpt.chk
 %mem=1600MB
 %nprocs=4
 Will use up to    4 processors via shared memory.
 ----------------------------------------------------------------------
 # opt=(calcall,ts,noeigen) freq wb97xd/def2tzvpp geom=connectivity iop
 (7/8=1)
 ----------------------------------------------------------------------
 1/5=1,10=4,11=1,18=20,26=3,38=1,57=2/1,3;
 2/9=110,12=2,17=6,18=5,40=1/2;
 3/5=44,7=202,11=2,25=1,30=1,71=2,74=-58,140=1/1,2,3;
 4//1;
 5/5=2,38=5/2;
 8/6=4,10=90,11=11/1;
 11/6=1,8=1,9=11,15=111,16=1/1,2,10;
 10/6=1/2;
 6/7=2,8=2,9=2,10=2,18=1,28=1/1;
 7/8=1,10=1,25=1/1,2,3,16;
 1/5=1,10=4,11=1,18=20,26=3/3(3);
 2/9=110/2;
 7/8=1,9=1,25=1,44=-1/16;
 99//99;
 2/9=110/2;
 3/5=44,7=202,11=2,25=1,30=1,71=2,74=-58,140=1/1,2,3;
 4/5=5,16=3,69=1/1;
 5/5=2,38=5/2;
 8/6=4,10=90,11=11/1;
 11/6=1,8=1,9=11,15=111,16=1/1,2,10;
 10/6=1/2;
 7/8=1,10=1,25=1/1,2,3,16;
 1/5=1,10=4,11=1,18=20,26=3/3(-8);
 2/9=110/2;
 6/7=2,8=2,9=2,10=2,18=1,19=2,28=1/1;
 7/8=1,9=1,25=1,44=-1/16;
 99//99;
 ----------------------------------------------------------------------
 TS opt of scan peak max corresponding to proton transfer from ethylene
  glycol to ligand
 ----------------------------------------------------------------------
 Symbolic Z-matrix:
 Charge = -1 Multiplicity = 1
 Si                    0.73806   0.06977  -0.04402 
 O                     0.9684    0.13881   1.61616 
 H                     1.84827  -0.19005   1.78892 
 O                     0.6607    1.38966  -0.926 
 H                    -0.58455   1.52572  -0.28199 
 O                     2.19566  -0.69401  -0.47451 
 H                     2.55779  -0.1921   -1.20141 
 O                    -0.31204  -1.20418  -0.3874 
 C                    -1.6499   -1.16395  -0.01245 
 H                    -1.76339  -1.45649   1.04227 
 H                    -2.22309  -1.87293  -0.62366 
 C                    -2.16882   0.2566   -0.18582 
 H                    -2.25575   0.48222  -1.25779 
 H                    -3.16287   0.36909   0.26827 
 O                    -1.24235   1.09496   0.43066 
 
 Add virtual bond connecting atoms O15        and H5         Dist= 2.01D+00.

 GradGradGradGradGradGradGradGradGradGradGradGradGradGradGradGradGradGrad
 Berny optimization.
 Initialization pass.
                           ----------------------------
                           !    Initial Parameters    !
                           ! (Angstroms and Degrees)  !
 --------------------------                            --------------------------
 ! Name  Definition              Value          Derivative Info.                !
 --------------------------------------------------------------------------------
 ! R1    R(1,2)                  1.6775         calculate D2E/DX2 analytically  !
 ! R2    R(1,4)                  1.5893         calculate D2E/DX2 analytically  !
 ! R3    R(1,6)                  1.701          calculate D2E/DX2 analytically  !
 ! R4    R(1,8)                  1.6863         calculate D2E/DX2 analytically  !
 ! R5    R(2,3)                  0.9551         calculate D2E/DX2 analytically  !
 ! R6    R(5,15)                 1.0612         calculate D2E/DX2 analytically  !
 ! R7    R(6,7)                  0.9547         calculate D2E/DX2 analytically  !
 ! R8    R(8,9)                  1.39           calculate D2E/DX2 analytically  !
 ! R9    R(9,10)                 1.1004         calculate D2E/DX2 analytically  !
 ! R10   R(9,11)                 1.0976         calculate D2E/DX2 analytically  !
 ! R11   R(9,12)                 1.5223         calculate D2E/DX2 analytically  !
 ! R12   R(12,13)                1.0989         calculate D2E/DX2 analytically  !
 ! R13   R(12,14)                1.0986         calculate D2E/DX2 analytically  !
 ! R14   R(12,15)                1.3933         calculate D2E/DX2 analytically  !
 ! A1    A(2,1,4)              121.4471         calculate D2E/DX2 analytically  !
 ! A2    A(2,1,6)               98.7017         calculate D2E/DX2 analytically  !
 ! A3    A(2,1,8)              108.5494         calculate D2E/DX2 analytically  !
 ! A4    A(4,1,6)              105.9124         calculate D2E/DX2 analytically  !
 ! A5    A(4,1,8)              118.9525         calculate D2E/DX2 analytically  !
 ! A6    A(6,1,8)               98.2141         calculate D2E/DX2 analytically  !
 ! A7    A(1,2,3)              106.9386         calculate D2E/DX2 analytically  !
 ! A8    A(1,6,7)              106.3601         calculate D2E/DX2 analytically  !
 ! A9    A(1,8,9)              121.5058         calculate D2E/DX2 analytically  !
 ! A10   A(8,9,10)             110.4956         calculate D2E/DX2 analytically  !
 ! A11   A(8,9,11)             109.4949         calculate D2E/DX2 analytically  !
 ! A12   A(8,9,12)             108.9284         calculate D2E/DX2 analytically  !
 ! A13   A(10,9,11)            107.9482         calculate D2E/DX2 analytically  !
 ! A14   A(10,9,12)            108.7889         calculate D2E/DX2 analytically  !
 ! A15   A(11,9,12)            111.1813         calculate D2E/DX2 analytically  !
 ! A16   A(9,12,13)            109.2485         calculate D2E/DX2 analytically  !
 ! A17   A(9,12,14)            110.9106         calculate D2E/DX2 analytically  !
 ! A18   A(9,12,15)            106.5255         calculate D2E/DX2 analytically  !
 ! A19   A(13,12,14)           108.0952         calculate D2E/DX2 analytically  !
 ! A20   A(13,12,15)           111.1422         calculate D2E/DX2 analytically  !
 ! A21   A(14,12,15)           110.926          calculate D2E/DX2 analytically  !
 ! A22   A(5,15,12)            111.0567         calculate D2E/DX2 analytically  !
 ! D1    D(4,1,2,3)           -110.0038         calculate D2E/DX2 analytically  !
 ! D2    D(6,1,2,3)              4.7492         calculate D2E/DX2 analytically  !
 ! D3    D(8,1,2,3)            106.5093         calculate D2E/DX2 analytically  !
 ! D4    D(2,1,6,7)           -132.2083         calculate D2E/DX2 analytically  !
 ! D5    D(4,1,6,7)             -5.8773         calculate D2E/DX2 analytically  !
 ! D6    D(8,1,6,7)            117.4721         calculate D2E/DX2 analytically  !
 ! D7    D(2,1,8,9)             68.0418         calculate D2E/DX2 analytically  !
 ! D8    D(4,1,8,9)            -76.4996         calculate D2E/DX2 analytically  !
 ! D9    D(6,1,8,9)            170.1449         calculate D2E/DX2 analytically  !
 ! D10   D(1,8,9,10)           -81.8597         calculate D2E/DX2 analytically  !
 ! D11   D(1,8,9,11)           159.3686         calculate D2E/DX2 analytically  !
 ! D12   D(1,8,9,12)            37.592          calculate D2E/DX2 analytically  !
 ! D13   D(8,9,12,13)           71.1865         calculate D2E/DX2 analytically  !
 ! D14   D(8,9,12,14)         -169.7619         calculate D2E/DX2 analytically  !
 ! D15   D(8,9,12,15)          -48.9529         calculate D2E/DX2 analytically  !
 ! D16   D(10,9,12,13)        -168.3058         calculate D2E/DX2 analytically  !
 ! D17   D(10,9,12,14)         -49.2542         calculate D2E/DX2 analytically  !
 ! D18   D(10,9,12,15)          71.5549         calculate D2E/DX2 analytically  !
 ! D19   D(11,9,12,13)         -49.5604         calculate D2E/DX2 analytically  !
 ! D20   D(11,9,12,14)          69.4912         calculate D2E/DX2 analytically  !
 ! D21   D(11,9,12,15)        -169.6998         calculate D2E/DX2 analytically  !
 ! D22   D(9,12,15,5)           99.1177         calculate D2E/DX2 analytically  !
 ! D23   D(13,12,15,5)         -19.7916         calculate D2E/DX2 analytically  !
 ! D24   D(14,12,15,5)        -140.0832         calculate D2E/DX2 analytically  !
 --------------------------------------------------------------------------------
 Trust Radius=3.00D-01 FncErr=1.00D-07 GrdErr=1.00D-06 EigMax=2.50D+02 EigMin=1.00D-04
 Number of steps in this run=     70 maximum allowed number of steps=    100.
 Search for a saddle point of order  1.
 GradGradGradGradGradGradGradGradGradGradGradGradGradGradGradGradGradGrad

                          Input orientation:                          
 ---------------------------------------------------------------------
 Center     Atomic      Atomic             Coordinates (Angstroms)
 Number     Number       Type             X           Y           Z
 ---------------------------------------------------------------------
      1         14           0        0.738064    0.069768   -0.044023
      2          8           0        0.968398    0.138805    1.616161
      3          1           0        1.848274   -0.190052    1.788924
      4          8           0        0.660701    1.389655   -0.925998
      5          1           0       -0.584548    1.525719   -0.281985
      6          8           0        2.195665   -0.694009   -0.474514
      7          1           0        2.557785   -0.192103   -1.201410
      8          8           0       -0.312039   -1.204176   -0.387399
      9          6           0       -1.649895   -1.163952   -0.012446
     10          1           0       -1.763394   -1.456486    1.042271
     11          1           0       -2.223086   -1.872926   -0.623658
     12          6           0       -2.168820    0.256599   -0.185821
     13          1           0       -2.255752    0.482220   -1.257785
     14          1           0       -3.162868    0.369085    0.268270
     15          8           0       -1.242352    1.094964    0.430663
 ---------------------------------------------------------------------
                    Distance matrix (angstroms):
                    1          2          3          4          5
     1  Si   0.000000
     2  O    1.677507   0.000000
     3  H    2.158649   0.955079   0.000000
     4  O    1.589329   2.849890   3.358066   0.000000
     5  H    1.981343   2.817469   3.626452   1.408514   0.000000
     6  O    1.700964   2.563335   2.344740   2.627091   3.562842
     7  H    2.172442   3.251824   3.073354   2.485304   3.697365
     8  O    1.686285   2.730818   3.229827   2.822104   2.745487
     9  C    2.688012   3.347386   4.053468   3.562912   2.905503
    10  H    3.125184   3.215119   3.899422   4.225025   3.469420
    11  H    3.588655   4.387416   5.022807   4.364868   3.788448
    12  C    2.916331   3.619828   4.498462   3.136537   2.032199
    13  H    3.256727   4.332741   5.155329   3.072331   2.198636
    14  H    3.924842   4.351689   5.266552   4.133705   2.878944
    15  O    2.280000   2.684597   3.612217   2.355628   1.061189
                    6          7          8          9         10
     6  O    0.000000
     7  H    0.954682   0.000000
     8  O    2.560554   3.150047   0.000000
     9  C    3.901626   4.479140   1.389988   0.000000
    10  H    4.307686   5.030443   2.052815   1.100403   0.000000
    11  H    4.575746   5.100558   2.038417   1.097621   1.777655
    12  C    4.476129   4.855260   2.371104   1.522270   2.146448
    13  H    4.670347   4.860867   2.716528   2.151236   3.048156
    14  H    5.513236   5.933023   3.321487   2.172117   2.426997
    15  O    3.979916   4.331425   2.611657   2.337764   2.674967
                   11         12         13         14         15
    11  H    0.000000
    12  C    2.174747   0.000000
    13  H    2.439241   1.098894   0.000000
    14  H    2.589467   1.098628   1.778905   0.000000
    15  O    3.298758   1.393288   2.062351   2.059527   0.000000
 Stoichiometry    C2H7O5Si(1-)
 Framework group  C1[X(C2H7O5Si)]
 Deg. of freedom    39
 Full point group                 C1      NOp   1
 Largest Abelian subgroup         C1      NOp   1
 Largest concise Abelian subgroup C1      NOp   1
                         Standard orientation:                         
 ---------------------------------------------------------------------
 Center     Atomic      Atomic             Coordinates (Angstroms)
 Number     Number       Type             X           Y           Z
 ---------------------------------------------------------------------
      1         14           0        0.738064    0.069768   -0.044023
      2          8           0        0.968398    0.138805    1.616161
      3          1           0        1.848274   -0.190052    1.788924
      4          8           0        0.660701    1.389655   -0.925998
      5          1           0       -0.584548    1.525719   -0.281985
      6          8           0        2.195665   -0.694009   -0.474514
      7          1           0        2.557785   -0.192103   -1.201410
      8          8           0       -0.312039   -1.204176   -0.387399
      9          6           0       -1.649895   -1.163952   -0.012446
     10          1           0       -1.763394   -1.456486    1.042271
     11          1           0       -2.223086   -1.872926   -0.623658
     12          6           0       -2.168820    0.256599   -0.185821
     13          1           0       -2.255752    0.482220   -1.257785
     14          1           0       -3.162868    0.369085    0.268270
     15          8           0       -1.242352    1.094964    0.430663
 ---------------------------------------------------------------------
 Rotational constants (GHZ):           2.8126074           1.5040270           1.3653151
 Standard basis: def2TZVPP (5D, 7F)
 There are   405 symmetry adapted cartesian basis functions of A   symmetry.
 There are   357 symmetry adapted basis functions of A   symmetry.
   357 basis functions,   545 primitive gaussians,   405 cartesian basis functions
    37 alpha electrons       37 beta electrons
       nuclear repulsion energy       539.7482083554 Hartrees.
 NAtoms=   15 NActive=   15 NUniq=   15 SFac= 1.00D+00 NAtFMM=   60 NAOKFM=F Big=F
 Integral buffers will be    131072 words long.
 Raffenetti 2 integral format.
 Two-electron integral symmetry is turned on.
 Nuclear repulsion after empirical dispersion term =      539.7414883805 Hartrees.
 One-electron integrals computed using PRISM.
   1 Symmetry operations used in ECPInt.
 ECPInt:  NShTT=    8911 NPrTT=   25186 LenC2=    8671 LenP2D=   19602.
 LDataN:  DoStor=T MaxTD1= 6 Len=  172
 NBasis=   357 RedAO= T EigKep=  3.11D-04  NBF=   357
 NBsUse=   357 1.00D-06 EigRej= -1.00D+00 NBFU=   357
 ExpMin= 7.01D-02 ExpMax= 4.48D+04 ExpMxC= 1.53D+03 IAcc=3 IRadAn=         5 AccDes= 0.00D+00
 Harris functional with IExCor= 4639 and IRadAn=       5 diagonalized for initial guess.
 HarFok:  IExCor= 4639 AccDes= 0.00D+00 IRadAn=         5 IDoV= 1 UseB2=F ITyADJ=14
 ICtDFT=  3500011 ScaDFX=  1.000000  1.000000  1.000000  1.000000
 FoFCou: FMM=F IPFlag=           0 FMFlag=      100000 FMFlg1=           0
         NFxFlg=           0 DoJE=T BraDBF=F KetDBF=T FulRan=T
         wScrn=  0.000000 ICntrl=       500 IOpCl=  0 I1Cent=   200000004 NGrid=           0
         NMat0=    1 NMatS0=      1 NMatT0=    0 NMatD0=    1 NMtDS0=    0 NMtDT0=    0
 Petite list used in FoFCou.
 Requested convergence on RMS density matrix=1.00D-08 within 128 cycles.
 Requested convergence on MAX density matrix=1.00D-06.
 Requested convergence on             energy=1.00D-06.
 No special actions if energy rises.
 Integral accuracy reduced to 1.0D-05 until final iterations.
 Initial convergence to 1.0D-05 achieved.  Increase integral accuracy.
 SCF Done:  E(RwB97XD) =  -746.327496035     A.U. after   14 cycles
            NFock= 14  Conv=0.78D-08     -V/T= 2.0032
 DoSCS=F DFT=T ScalE2(SS,OS)=  1.000000  1.000000
 Range of M.O.s used for correlation:     1   357
 NBasis=   357 NAE=    37 NBE=    37 NFC=     0 NFV=     0
 NROrb=    357 NOA=    37 NOB=    37 NVA=   320 NVB=   320

 **** Warning!!: The largest alpha MO coefficient is  0.12763253D+02

   1 Symmetry operations used in ECPInt.
 ECPInt:  NShTT=    8911 NPrTT=   25186 LenC2=    8671 LenP2D=   19602.
 LDataN:  DoStor=T MaxTD1= 7 Len=  274
 Symmetrizing basis deriv contribution to polar:
 IMax=3 JMax=2 DiffMx= 0.00D+00
 G2DrvN: will do    16 centers at a time, making    1 passes.
 Calling FoFCou, ICntrl=  3107 FMM=F I1Cent=   0 AccDes= 0.00D+00.
 End of G2Drv F.D. properties file   721 does not exist.
 End of G2Drv F.D. properties file   722 does not exist.
 End of G2Drv F.D. properties file   788 does not exist.
          IDoAtm=111111111111111
          Differentiating once with respect to electric field.
                with respect to dipole field.
          Differentiating once with respect to nuclear coordinates.
 CalDSu exits because no D1Ps are significant.
          There are    48 degrees of freedom in the 1st order CPHF.  IDoFFX=6 NUNeed=     3.
     45 vectors produced by pass  0 Test12= 2.47D-14 2.08D-09 XBig12= 2.63D+01 1.06D+00.
 AX will form    45 AO Fock derivatives at one time.
     45 vectors produced by pass  1 Test12= 2.47D-14 2.08D-09 XBig12= 2.39D+00 2.78D-01.
     45 vectors produced by pass  2 Test12= 2.47D-14 2.08D-09 XBig12= 6.43D-02 5.00D-02.
     45 vectors produced by pass  3 Test12= 2.47D-14 2.08D-09 XBig12= 1.13D-03 6.67D-03.
     45 vectors produced by pass  4 Test12= 2.47D-14 2.08D-09 XBig12= 1.07D-05 4.90D-04.
     45 vectors produced by pass  5 Test12= 2.47D-14 2.08D-09 XBig12= 9.46D-08 3.36D-05.
     45 vectors produced by pass  6 Test12= 2.47D-14 2.08D-09 XBig12= 6.50D-10 3.67D-06.
     21 vectors produced by pass  7 Test12= 2.47D-14 2.08D-09 XBig12= 4.91D-12 2.64D-07.
      3 vectors produced by pass  8 Test12= 2.47D-14 2.08D-09 XBig12= 3.71D-14 2.22D-08.
 InvSVY:  IOpt=1 It=  1 EMax= 3.55D-15
 Solved reduced A of dimension   339 with    48 vectors.
 Isotropic polarizability for W=    0.000000       68.87 Bohr**3.
 End of Minotr F.D. properties file   721 does not exist.
 End of Minotr F.D. properties file   722 does not exist.
 End of Minotr F.D. properties file   788 does not exist.

 **********************************************************************

            Population analysis using the SCF Density.

 **********************************************************************

 Orbital symmetries:
       Occupied  (A) (A) (A) (A) (A) (A) (A) (A) (A) (A) (A) (A)
                 (A) (A) (A) (A) (A) (A) (A) (A) (A) (A) (A) (A)
                 (A) (A) (A) (A) (A) (A) (A) (A) (A) (A) (A) (A)
                 (A)
       Virtual   (A) (A) (A) (A) (A) (A) (A) (A) (A) (A) (A) (A)
                 (A) (A) (A) (A) (A) (A) (A) (A) (A) (A) (A) (A)
                 (A) (A) (A) (A) (A) (A) (A) (A) (A) (A) (A) (A)
                 (A) (A) (A) (A) (A) (A) (A) (A) (A) (A) (A) (A)
                 (A) (A) (A) (A) (A) (A) (A) (A) (A) (A) (A) (A)
                 (A) (A) (A) (A) (A) (A) (A) (A) (A) (A) (A) (A)
                 (A) (A) (A) (A) (A) (A) (A) (A) (A) (A) (A) (A)
                 (A) (A) (A) (A) (A) (A) (A) (A) (A) (A) (A) (A)
                 (A) (A) (A) (A) (A) (A) (A) (A) (A) (A) (A) (A)
                 (A) (A) (A) (A) (A) (A) (A) (A) (A) (A) (A) (A)
                 (A) (A) (A) (A) (A) (A) (A) (A) (A) (A) (A) (A)
                 (A) (A) (A) (A) (A) (A) (A) (A) (A) (A) (A) (A)
                 (A) (A) (A) (A) (A) (A) (A) (A) (A) (A) (A) (A)
                 (A) (A) (A) (A) (A) (A) (A) (A) (A) (A) (A) (A)
                 (A) (A) (A) (A) (A) (A) (A) (A) (A) (A) (A) (A)
                 (A) (A) (A) (A) (A) (A) (A) (A) (A) (A) (A) (A)
                 (A) (A) (A) (A) (A) (A) (A) (A) (A) (A) (A) (A)
                 (A) (A) (A) (A) (A) (A) (A) (A) (A) (A) (A) (A)
                 (A) (A) (A) (A) (A) (A) (A) (A) (A) (A) (A) (A)
                 (A) (A) (A) (A) (A) (A) (A) (A) (A) (A) (A) (A)
                 (A) (A) (A) (A) (A) (A) (A) (A) (A) (A) (A) (A)
                 (A) (A) (A) (A) (A) (A) (A) (A) (A) (A) (A) (A)
                 (A) (A) (A) (A) (A) (A) (A) (A) (A) (A) (A) (A)
                 (A) (A) (A) (A) (A) (A) (A) (A) (A) (A) (A) (A)
                 (A) (A) (A) (A) (A) (A) (A) (A) (A) (A) (A) (A)
                 (A) (A) (A) (A) (A) (A) (A) (A) (A) (A) (A) (A)
                 (A) (A) (A) (A) (A) (A) (A) (A)
 The electronic state is 1-A.
 Alpha  occ. eigenvalues --  -66.10063 -19.06574 -19.06366 -19.05718 -19.05045
 Alpha  occ. eigenvalues --  -18.97915 -10.17753 -10.17525  -5.21636  -3.56290
 Alpha  occ. eigenvalues --   -3.56169  -3.55918  -0.97235  -0.93027  -0.91936
 Alpha  occ. eigenvalues --   -0.89671  -0.80586  -0.67002  -0.55355  -0.45855
 Alpha  occ. eigenvalues --   -0.44739  -0.42038  -0.40245  -0.38520  -0.36353
 Alpha  occ. eigenvalues --   -0.33868  -0.30841  -0.27703  -0.26383  -0.24877
 Alpha  occ. eigenvalues --   -0.24046  -0.23196  -0.21716  -0.20580  -0.18982
 Alpha  occ. eigenvalues --   -0.15960  -0.14995
 Alpha virt. eigenvalues --    0.25756   0.26590   0.28655   0.30175   0.30810
 Alpha virt. eigenvalues --    0.32430   0.33748   0.35746   0.37924   0.38833
 Alpha virt. eigenvalues --    0.40320   0.41536   0.43462   0.43718   0.45359
 Alpha virt. eigenvalues --    0.48935   0.50824   0.51746   0.53399   0.54400
 Alpha virt. eigenvalues --    0.55193   0.56279   0.58448   0.59344   0.60812
 Alpha virt. eigenvalues --    0.61985   0.62573   0.63457   0.64401   0.65841
 Alpha virt. eigenvalues --    0.65994   0.68205   0.68868   0.70625   0.71538
 Alpha virt. eigenvalues --    0.72002   0.73021   0.74804   0.76813   0.77257
 Alpha virt. eigenvalues --    0.78341   0.79667   0.80702   0.82938   0.85526
 Alpha virt. eigenvalues --    0.89359   0.90118   0.91580   0.92944   0.94952
 Alpha virt. eigenvalues --    0.95443   0.96199   0.98109   0.99160   1.00763
 Alpha virt. eigenvalues --    1.02758   1.03861   1.06502   1.07269   1.10178
 Alpha virt. eigenvalues --    1.12159   1.12321   1.13994   1.17417   1.17967
 Alpha virt. eigenvalues --    1.20631   1.23539   1.23625   1.24956   1.27894
 Alpha virt. eigenvalues --    1.28452   1.30308   1.31182   1.33323   1.34540
 Alpha virt. eigenvalues --    1.35815   1.37921   1.40080   1.42866   1.43561
 Alpha virt. eigenvalues --    1.44256   1.45807   1.46022   1.50338   1.51336
 Alpha virt. eigenvalues --    1.52569   1.53960   1.54987   1.58499   1.60844
 Alpha virt. eigenvalues --    1.62671   1.63960   1.67511   1.69995   1.71557
 Alpha virt. eigenvalues --    1.72392   1.74828   1.76688   1.79108   1.80624
 Alpha virt. eigenvalues --    1.81639   1.85054   1.91605   1.95079   1.96735
 Alpha virt. eigenvalues --    1.99203   2.03358   2.05228   2.07945   2.10238
 Alpha virt. eigenvalues --    2.10899   2.12949   2.15815   2.17589   2.18241
 Alpha virt. eigenvalues --    2.20606   2.24748   2.25509   2.27009   2.29425
 Alpha virt. eigenvalues --    2.32912   2.33712   2.36749   2.38741   2.40931
 Alpha virt. eigenvalues --    2.43729   2.45468   2.47372   2.49981   2.53340
 Alpha virt. eigenvalues --    2.53737   2.56766   2.59750   2.60876   2.65529
 Alpha virt. eigenvalues --    2.68611   2.75444   2.79230   2.80513   2.83103
 Alpha virt. eigenvalues --    2.85308   2.87683   2.93549   2.99431   3.00179
 Alpha virt. eigenvalues --    3.02281   3.05473   3.07223   3.08739   3.13316
 Alpha virt. eigenvalues --    3.15167   3.16857   3.18686   3.21365   3.22212
 Alpha virt. eigenvalues --    3.24189   3.26608   3.28714   3.30571   3.32626
 Alpha virt. eigenvalues --    3.32918   3.33864   3.35920   3.38339   3.38782
 Alpha virt. eigenvalues --    3.46718   3.47249   3.48117   3.50458   3.53527
 Alpha virt. eigenvalues --    3.54799   3.56318   3.58383   3.58947   3.60270
 Alpha virt. eigenvalues --    3.63153   3.64649   3.68544   3.69639   3.74910
 Alpha virt. eigenvalues --    3.76370   3.77149   3.80049   3.82017   3.84237
 Alpha virt. eigenvalues --    3.87304   3.90269   3.90861   3.92941   3.95461
 Alpha virt. eigenvalues --    3.96383   3.99229   4.01341   4.02754   4.05211
 Alpha virt. eigenvalues --    4.06689   4.09446   4.14006   4.16313   4.20191
 Alpha virt. eigenvalues --    4.20887   4.22673   4.25673   4.27383   4.27639
 Alpha virt. eigenvalues --    4.30086   4.31623   4.33679   4.37076   4.37391
 Alpha virt. eigenvalues --    4.41871   4.42623   4.43994   4.47438   4.50098
 Alpha virt. eigenvalues --    4.51980   4.55655   4.55746   4.58098   4.62705
 Alpha virt. eigenvalues --    4.67581   4.74990   4.78133   4.80987   4.86691
 Alpha virt. eigenvalues --    4.87297   4.90483   4.94720   4.97011   5.01908
 Alpha virt. eigenvalues --    5.05017   5.06709   5.10128   5.14054   5.15025
 Alpha virt. eigenvalues --    5.17818   5.20705   5.22941   5.27272   5.29123
 Alpha virt. eigenvalues --    5.33063   5.36051   5.42043   5.44082   5.47401
 Alpha virt. eigenvalues --    5.53329   5.54731   5.55929   5.56848   5.60486
 Alpha virt. eigenvalues --    5.61060   5.63613   5.65320   5.66779   5.68902
 Alpha virt. eigenvalues --    5.70229   5.74495   5.74656   5.77003   5.78794
 Alpha virt. eigenvalues --    5.81047   5.85910   5.88079   5.89650   5.92872
 Alpha virt. eigenvalues --    5.97324   6.01553   6.04097   6.13241   6.20538
 Alpha virt. eigenvalues --    6.22282   6.30751   6.37092   6.38134   6.48195
 Alpha virt. eigenvalues --    6.69783   6.71175   6.74242   6.78773   6.83043
 Alpha virt. eigenvalues --    6.85083   6.86546   6.87131   6.89038   6.89801
 Alpha virt. eigenvalues --    6.90793   6.91177   6.93902   6.95428   6.97784
 Alpha virt. eigenvalues --    7.01478   7.04124   7.06045   7.08388   7.11716
 Alpha virt. eigenvalues --    7.16193   7.21490   7.23959   7.30156   7.31862
 Alpha virt. eigenvalues --    7.36988   7.44569   7.47582   7.51684   7.55509
 Alpha virt. eigenvalues --    7.56697   7.61189   7.70635   7.82075   7.85585
 Alpha virt. eigenvalues --    7.90547   7.98169  12.73120  23.57105  23.68007
 Alpha virt. eigenvalues --   44.04716  44.06899  44.17968  44.35899  44.42328
          Condensed to atoms (all electrons):
               1          2          3          4          5          6
     1  Si  11.482574   0.418244  -0.039021   0.594092  -0.038003   0.424177
     2  O    0.418244   7.817306   0.325180  -0.027853   0.001160  -0.049400
     3  H   -0.039021   0.325180   0.553738  -0.001119  -0.000526   0.005578
     4  O    0.594092  -0.027853  -0.001119   8.214862   0.144730  -0.053180
     5  H   -0.038003   0.001160  -0.000526   0.144730   0.427438   0.001541
     6  O    0.424177  -0.049400   0.005578  -0.053180   0.001541   7.955030
     7  H   -0.029136   0.002002  -0.000602   0.006590  -0.000764   0.317820
     8  O    0.377694  -0.027474   0.000967  -0.026760  -0.001468  -0.038117
     9  C   -0.091877  -0.008698  -0.000168  -0.014530   0.021931  -0.000518
    10  H   -0.002379   0.006104   0.000230  -0.000167  -0.001683   0.000056
    11  H    0.005998  -0.000273   0.000053  -0.000146  -0.001229  -0.000008
    12  C    0.000579  -0.000134  -0.000000   0.017561  -0.028207  -0.001205
    13  H    0.012670  -0.000119   0.000044   0.009726  -0.016322   0.000027
    14  H    0.000281   0.000177   0.000057  -0.001164   0.000864  -0.000001
    15  O    0.107735  -0.020851   0.002798  -0.133759   0.257211   0.000466
               7          8          9         10         11         12
     1  Si  -0.029136   0.377694  -0.091877  -0.002379   0.005998   0.000579
     2  O    0.002002  -0.027474  -0.008698   0.006104  -0.000273  -0.000134
     3  H   -0.000602   0.000967  -0.000168   0.000230   0.000053  -0.000000
     4  O    0.006590  -0.026760  -0.014530  -0.000167  -0.000146   0.017561
     5  H   -0.000764  -0.001468   0.021931  -0.001683  -0.001229  -0.028207
     6  O    0.317820  -0.038117  -0.000518   0.000056  -0.000008  -0.001205
     7  H    0.538450   0.000543  -0.000261  -0.000030   0.000040  -0.000101
     8  O    0.000543   7.967893   0.340456  -0.053958  -0.044235  -0.079886
     9  C   -0.000261   0.340456   4.778013   0.415514   0.361947   0.284536
    10  H   -0.000030  -0.053958   0.415514   0.728380  -0.066842  -0.063008
    11  H    0.000040  -0.044235   0.361947  -0.066842   0.741160  -0.019066
    12  C   -0.000101  -0.079886   0.284536  -0.063008  -0.019066   4.766653
    13  H   -0.000029   0.004296  -0.060213   0.014279  -0.011192   0.418195
    14  H   -0.000001   0.005838  -0.039460  -0.008574   0.010134   0.368904
    15  O    0.000220  -0.014059  -0.089337   0.004869   0.007898   0.293442
              13         14         15
     1  Si   0.012670   0.000281   0.107735
     2  O   -0.000119   0.000177  -0.020851
     3  H    0.000044   0.000057   0.002798
     4  O    0.009726  -0.001164  -0.133759
     5  H   -0.016322   0.000864   0.257211
     6  O    0.000027  -0.000001   0.000466
     7  H   -0.000029  -0.000001   0.000220
     8  O    0.004296   0.005838  -0.014059
     9  C   -0.060213  -0.039460  -0.089337
    10  H    0.014279  -0.008574   0.004869
    11  H   -0.011192   0.010134   0.007898
    12  C    0.418195   0.368904   0.293442
    13  H    0.699247  -0.056028  -0.051989
    14  H   -0.056028   0.740309  -0.035307
    15  O   -0.051989  -0.035307   8.098906
 Mulliken charges:
               1
     1  Si   0.776372
     2  O   -0.435370
     3  H    0.152791
     4  O   -0.728883
     5  H    0.233325
     6  O   -0.562267
     7  H    0.165258
     8  O   -0.411731
     9  C    0.102663
    10  H    0.027208
    11  H    0.015760
    12  C    0.041738
    13  H    0.037408
    14  H    0.013970
    15  O   -0.428242
 Sum of Mulliken charges =  -1.00000
 Mulliken charges with hydrogens summed into heavy atoms:
               1
     1  Si   0.776372
     2  O   -0.282579
     4  O   -0.728883
     6  O   -0.397010
     8  O   -0.411731
     9  C    0.145631
    12  C    0.093116
    15  O   -0.194916
 APT charges:
               1
     1  Si   2.165854
     2  O   -0.854917
     3  H    0.238389
     4  O   -1.160839
     5  H    0.574252
     6  O   -0.891135
     7  H    0.250915
     8  O   -0.994213
     9  C    0.537810
    10  H   -0.101556
    11  H   -0.102065
    12  C    0.484994
    13  H   -0.080995
    14  H   -0.111380
    15  O   -0.955115
 Sum of APT charges =  -1.00000
 APT charges with hydrogens summed into heavy atoms:
               1
     1  Si   2.165854
     2  O   -0.616528
     4  O   -1.160839
     6  O   -0.640219
     8  O   -0.994213
     9  C    0.334188
    12  C    0.292618
    15  O   -0.380862
 Electronic spatial extent (au):  <R**2>=           1020.1579
 Charge=             -1.0000 electrons
 Dipole moment (field-independent basis, Debye):
    X=             -2.0645    Y=             -2.0922    Z=              0.2343  Tot=              2.9486
 Quadrupole moment (field-independent basis, Debye-Ang):
   XX=            -59.2999   YY=            -68.1665   ZZ=            -61.7362
   XY=              1.8527   XZ=              2.6652   YZ=             -0.2736
 Traceless Quadrupole moment (field-independent basis, Debye-Ang):
   XX=              3.7676   YY=             -5.0989   ZZ=              1.3313
   XY=              1.8527   XZ=              2.6652   YZ=             -0.2736
 Octapole moment (field-independent basis, Debye-Ang**2):
  XXX=             11.1618  YYY=             -3.9022  ZZZ=             -2.7881  XYY=             -3.7630
  XXY=              3.0441  XXZ=              0.5783  XZZ=              8.2718  YZZ=             -7.6066
  YYZ=              7.6304  XYZ=              1.8336
 Hexadecapole moment (field-independent basis, Debye-Ang**3):
 XXXX=           -763.7465 YYYY=           -350.1514 ZZZZ=           -248.1357 XXXY=             16.0090
 XXXZ=             -2.9288 YYYX=             -8.8149 YYYZ=              7.1310 ZZZX=             -0.0136
 ZZZY=              2.3198 XXYY=           -199.8897 XXZZ=           -141.2407 YYZZ=           -103.9530
 XXYZ=             -5.2269 YYXZ=             11.5272 ZZXY=             -7.8982
 N-N= 5.397414883805D+02 E-N=-2.861403626448D+03  KE= 7.439446252450D+02
  Exact polarizability:      80.691       1.923      63.424      -1.031      -1.646      62.495
 Approx polarizability:      76.741       1.205      67.617      -1.993      -1.391      68.914
   1 Symmetry operations used in ECPInt.
 ECPInt:  NShTT=    8911 NPrTT=   25186 LenC2=    8671 LenP2D=   19602.
 LDataN:  DoStor=T MaxTD1= 8 Len=  415
 Calling FoFJK, ICntrl=    100127 FMM=F ISym2X=0 I1Cent= 0 IOpClX= 0 NMat=1 NMatS=1 NMatT=0.
 Full mass-weighted force constant matrix:
 Low frequencies --- -185.9195  -52.7038  -42.5582   -6.3434    0.0005    0.0018
 Low frequencies ---    0.0024  116.7648  159.1715
 ******    1 imaginary frequencies (negative Signs) ****** 
 Diagonal vibrational polarizability:
      133.6788199      39.0202993      45.2556334
 Harmonic frequencies (cm**-1), IR intensities (KM/Mole), Raman scattering
 activities (A**4/AMU), depolarization ratios for plane and unpolarized
 incident light, reduced masses (AMU), force constants (mDyne/A),
 and normal coordinates:
                      1                      2                      3
                      A                      A                      A
 Frequencies --   -185.7289               116.5712               158.5981
 Red. masses --      5.2257                 3.4140                 4.5808
 Frc consts  --      0.1062                 0.0273                 0.0679
 IR Inten    --     17.1992                 5.8184                 8.3238
  Atom  AN      X      Y      Z        X      Y      Z        X      Y      Z
     1  14    -0.16   0.01   0.09    -0.00  -0.02   0.04    -0.01   0.01  -0.05
     2   8     0.03   0.00   0.05     0.17   0.12   0.01    -0.07   0.12  -0.04
     3   1     0.06   0.02  -0.07     0.22   0.20  -0.06    -0.05   0.19  -0.01
     4   8    -0.05   0.06  -0.01    -0.09  -0.03   0.03    -0.05  -0.09  -0.18
     5   1     0.61  -0.04  -0.45    -0.01   0.01   0.19    -0.10  -0.01   0.16
     6   8    -0.11   0.12  -0.00    -0.04  -0.02  -0.07     0.06  -0.03   0.22
     7   1    -0.16   0.12  -0.02    -0.12  -0.06  -0.13     0.06  -0.26   0.05
     8   8    -0.02  -0.07  -0.01     0.01  -0.06   0.16    -0.00   0.02  -0.13
     9   6    -0.03  -0.04  -0.03    -0.08   0.01  -0.18    -0.01  -0.01  -0.17
    10   1    -0.06  -0.10  -0.05    -0.37  -0.10  -0.24    -0.05  -0.29  -0.25
    11   1    -0.05   0.02  -0.08     0.02   0.11  -0.40    -0.03   0.17  -0.36
    12   6     0.10   0.03   0.04     0.05   0.06  -0.15     0.00   0.04   0.18
    13   1    -0.06   0.00   0.03     0.31   0.17  -0.15    -0.15   0.27   0.24
    14   1     0.18   0.15   0.18    -0.05   0.07  -0.37     0.08  -0.03   0.35
    15   8     0.35  -0.13  -0.16    -0.03  -0.06   0.12     0.10  -0.06   0.20
                      4                      5                      6
                      A                      A                      A
 Frequencies --    206.1064               247.0391               289.9918
 Red. masses --      8.1382                 2.6919                 1.8663
 Frc consts  --      0.2037                 0.0968                 0.0925
 IR Inten    --      8.9356                18.0015                21.6744
  Atom  AN      X      Y      Z        X      Y      Z        X      Y      Z
     1  14    -0.00  -0.10  -0.01     0.03  -0.01   0.06     0.03  -0.05   0.00
     2   8    -0.10  -0.29   0.01     0.17  -0.07   0.03    -0.06   0.05   0.01
     3   1     0.05   0.09  -0.01     0.29   0.19  -0.10    -0.10   0.03   0.12
     4   8    -0.20  -0.20  -0.16    -0.02  -0.04   0.01     0.07  -0.04   0.01
     5   1     0.11   0.01   0.02     0.05  -0.11  -0.23     0.02  -0.04  -0.06
     6   8     0.23   0.35   0.04     0.07   0.04   0.06     0.03   0.03  -0.11
     7   1    -0.14   0.28  -0.20    -0.23  -0.34  -0.34     0.25   0.61   0.39
     8   8    -0.01  -0.09   0.09    -0.03   0.07  -0.01     0.00  -0.03   0.08
     9   6    -0.03   0.12   0.06    -0.05  -0.00  -0.08    -0.04  -0.02  -0.07
    10   1    -0.07   0.25   0.09    -0.08  -0.15  -0.12    -0.17  -0.19  -0.13
    11   1    -0.09   0.12   0.13     0.01   0.04  -0.19     0.00   0.10  -0.25
    12   6     0.10   0.15  -0.07    -0.14  -0.01   0.07    -0.05   0.02   0.08
    13   1     0.32   0.11  -0.10    -0.45   0.01   0.09    -0.27   0.08   0.11
    14   1     0.00   0.19  -0.28    -0.04  -0.09   0.31     0.02  -0.04   0.26
    15   8     0.01   0.13   0.07    -0.07   0.05  -0.14    -0.00   0.04  -0.04
                      7                      8                      9
                      A                      A                      A
 Frequencies --    320.8262               331.8320               353.4468
 Red. masses --      1.4085                 2.2499                 5.5629
 Frc consts  --      0.0854                 0.1460                 0.4094
 IR Inten    --     10.9832                11.8542               154.2496
  Atom  AN      X      Y      Z        X      Y      Z        X      Y      Z
     1  14     0.01  -0.04  -0.01     0.03   0.07   0.01    -0.02   0.12  -0.09
     2   8    -0.09   0.03  -0.00    -0.13  -0.07   0.04     0.05  -0.18  -0.07
     3   1     0.21   0.87   0.05    -0.23  -0.24   0.19     0.25   0.21  -0.34
     4   8     0.07   0.01   0.06     0.03   0.01  -0.07     0.24   0.09  -0.12
     5   1     0.03  -0.01   0.05    -0.08   0.03  -0.01    -0.40   0.08   0.17
     6   8     0.02   0.02  -0.05    -0.06  -0.02  -0.07     0.04   0.07   0.11
     7   1    -0.23  -0.15  -0.29    -0.38  -0.44  -0.53     0.20   0.19   0.28
     8   8    -0.02  -0.01  -0.02     0.08  -0.00   0.14    -0.12   0.04   0.20
     9   6    -0.02  -0.00   0.02     0.05  -0.03  -0.05    -0.15  -0.05   0.04
    10   1     0.02   0.03   0.03    -0.11  -0.18  -0.11    -0.30  -0.06   0.02
    11   1    -0.03  -0.02   0.06     0.11   0.06  -0.22    -0.07  -0.05  -0.05
    12   6     0.00   0.00   0.00     0.02  -0.02   0.04    -0.10  -0.06  -0.04
    13   1     0.02  -0.01  -0.00    -0.06   0.03   0.05     0.03  -0.02  -0.03
    14   1    -0.00   0.03  -0.01     0.05  -0.06   0.11    -0.08   0.13  -0.07
    15   8     0.02  -0.03   0.02     0.02   0.03  -0.00     0.04  -0.19   0.03
                     10                     11                     12
                      A                      A                      A
 Frequencies --    405.8160               411.7939               486.2318
 Red. masses --      2.1852                 6.1474                 5.5973
 Frc consts  --      0.2120                 0.6142                 0.7797
 IR Inten    --     78.1062               103.9522               177.5263
  Atom  AN      X      Y      Z        X      Y      Z        X      Y      Z
     1  14    -0.03   0.05   0.03    -0.04  -0.04  -0.15    -0.15  -0.01   0.01
     2   8     0.01  -0.12   0.05    -0.03  -0.05  -0.21     0.11   0.05  -0.02
     3   1     0.35   0.68  -0.16     0.07   0.19  -0.27     0.08  -0.21  -0.33
     4   8    -0.05  -0.02  -0.08    -0.12   0.23   0.20     0.29  -0.06  -0.01
     5   1    -0.05   0.05  -0.02     0.26   0.07  -0.11    -0.23   0.17   0.17
     6   8    -0.12  -0.09  -0.01     0.06  -0.06   0.16    -0.11   0.15   0.05
     7   1     0.24   0.24   0.40     0.36  -0.41   0.08    -0.52   0.10  -0.18
     8   8     0.08   0.03  -0.00     0.08  -0.20   0.16     0.01  -0.21  -0.10
     9   6     0.10  -0.00  -0.03     0.02  -0.02  -0.02     0.04  -0.10  -0.02
    10   1     0.08  -0.06  -0.04    -0.13  -0.16  -0.08     0.05  -0.22  -0.06
    11   1     0.11   0.02  -0.07     0.00   0.13  -0.18    -0.11   0.07  -0.08
    12   6     0.04  -0.01   0.01     0.06   0.05   0.08     0.08  -0.05   0.04
    13   1     0.03  -0.01   0.01    -0.14   0.03   0.08     0.15  -0.07   0.04
    14   1     0.04  -0.08   0.01     0.08  -0.08   0.18     0.05  -0.11  -0.02
    15   8    -0.02   0.08   0.00    -0.01   0.15  -0.06    -0.10   0.22   0.06
                     13                     14                     15
                      A                      A                      A
 Frequencies --    597.7307               673.0319               761.2225
 Red. masses --      2.2910                 6.9898                 8.9358
 Frc consts  --      0.4823                 1.8655                 3.0508
 IR Inten    --     56.9936                31.7223               328.3320
  Atom  AN      X      Y      Z        X      Y      Z        X      Y      Z
     1  14    -0.02   0.00  -0.00    -0.11  -0.14  -0.00    -0.30   0.07   0.11
     2   8     0.01  -0.00   0.01    -0.04   0.01  -0.28    -0.05   0.03   0.02
     3   1     0.02  -0.01  -0.07    -0.08  -0.14  -0.35     0.05  -0.12  -0.64
     4   8     0.03  -0.01  -0.01     0.07  -0.16   0.10     0.03   0.01  -0.02
     5   1    -0.11   0.01   0.08     0.25  -0.14   0.00    -0.12   0.17   0.02
     6   8    -0.04   0.01   0.01    -0.11   0.08   0.06     0.48  -0.24  -0.16
     7   1    -0.08   0.01  -0.02    -0.30   0.12   0.00     0.05  -0.01  -0.24
     8   8     0.11  -0.13   0.02     0.09   0.38   0.15     0.04   0.05   0.02
     9   6     0.08   0.15  -0.05     0.17   0.07  -0.02     0.05   0.01  -0.01
    10   1     0.13   0.56   0.07     0.13  -0.01  -0.04     0.06   0.03  -0.01
    11   1     0.05  -0.09   0.27     0.46  -0.07  -0.13     0.12  -0.05   0.00
    12   6    -0.13   0.08  -0.06     0.02  -0.02  -0.01    -0.02  -0.01  -0.02
    13   1    -0.45   0.37   0.04    -0.02  -0.00  -0.01    -0.01   0.05   0.00
    14   1    -0.00  -0.14   0.28     0.01  -0.14  -0.00     0.00  -0.05   0.01
    15   8    -0.01  -0.10   0.02    -0.00  -0.06   0.02    -0.01   0.03   0.03
                     16                     17                     18
                      A                      A                      A
 Frequencies --    815.9816               917.4435               921.4694
 Red. masses --     12.7935                 1.6640                 1.6546
 Frc consts  --      5.0188                 0.8252                 0.8278
 IR Inten    --    222.8348                40.2286                89.2239
  Atom  AN      X      Y      Z        X      Y      Z        X      Y      Z
     1  14    -0.16  -0.23  -0.36    -0.02   0.01   0.01     0.01  -0.00  -0.01
     2   8     0.10   0.04   0.57    -0.01   0.00   0.01    -0.01   0.00   0.01
     3   1     0.11  -0.10   0.30     0.01  -0.01  -0.08     0.03  -0.03  -0.17
     4   8     0.04   0.15  -0.06     0.03  -0.04   0.01    -0.01   0.01   0.01
     5   1     0.05   0.08   0.08     0.15  -0.09  -0.05    -0.19   0.01  -0.03
     6   8     0.01   0.05   0.02    -0.03   0.05  -0.04     0.01  -0.03   0.02
     7   1     0.12  -0.26  -0.12     0.57  -0.42  -0.03    -0.38   0.25   0.01
     8   8     0.03   0.18   0.09     0.08  -0.01  -0.02     0.06  -0.04  -0.03
     9   6     0.09   0.04  -0.01    -0.00  -0.07   0.04     0.03   0.14   0.07
    10   1     0.13  -0.05  -0.04     0.07  -0.23  -0.00    -0.02  -0.31  -0.07
    11   1     0.29  -0.01  -0.12     0.16  -0.10  -0.07    -0.06   0.51  -0.27
    12   6     0.03  -0.02  -0.01    -0.13   0.11   0.03    -0.04   0.02   0.08
    13   1    -0.04  -0.02  -0.00     0.16  -0.04  -0.03     0.24  -0.27  -0.01
    14   1     0.03  -0.16   0.02    -0.22   0.42  -0.24    -0.17   0.16  -0.23
    15   8    -0.02  -0.00   0.01    -0.01  -0.01   0.01    -0.02  -0.08  -0.06
                     19                     20                     21
                      A                      A                      A
 Frequencies --    926.6025               964.4268               999.2442
 Red. masses --      1.7505                 1.6942                 1.9744
 Frc consts  --      0.8855                 0.9285                 1.1615
 IR Inten    --     53.7456               146.1378               401.6017
  Atom  AN      X      Y      Z        X      Y      Z        X      Y      Z
     1  14    -0.02   0.03   0.00    -0.05  -0.04   0.05    -0.05   0.07  -0.06
     2   8    -0.01   0.01   0.01     0.05  -0.03  -0.08     0.05  -0.02  -0.02
     3   1     0.01  -0.01  -0.10    -0.12   0.11   0.89    -0.07   0.11   0.72
     4   8     0.02  -0.07   0.04     0.04   0.09  -0.09    -0.03  -0.13   0.12
     5   1    -0.03  -0.03  -0.01     0.23  -0.11  -0.07    -0.51   0.29   0.10
     6   8    -0.02   0.05  -0.04     0.02  -0.00   0.00     0.02  -0.01   0.01
     7   1     0.62  -0.44  -0.03     0.09  -0.04   0.02    -0.03   0.04   0.01
     8   8    -0.04  -0.01   0.00     0.02  -0.01  -0.00    -0.01  -0.00   0.00
     9   6     0.00   0.15  -0.00     0.01   0.06   0.01     0.05  -0.03   0.01
    10   1    -0.09   0.07  -0.03     0.01  -0.01  -0.02     0.02  -0.09  -0.01
    11   1    -0.20   0.37  -0.08     0.00   0.12  -0.05     0.02   0.02  -0.03
    12   6     0.10  -0.10   0.02    -0.02  -0.02   0.02    -0.01   0.02  -0.02
    13   1    -0.01  -0.12   0.02     0.07  -0.07  -0.00    -0.01   0.02  -0.01
    14   1     0.09  -0.34   0.07    -0.09  -0.11  -0.10     0.05   0.17   0.06
    15   8    -0.03  -0.04  -0.02    -0.05  -0.01   0.03     0.06   0.01  -0.05
                     22                     23                     24
                      A                      A                      A
 Frequencies --   1128.9556              1144.3830              1173.0095
 Red. masses --      2.1979                 3.5071                 2.4732
 Frc consts  --      1.6505                 2.7061                 2.0050
 IR Inten    --     39.6331                51.3952                39.3886
  Atom  AN      X      Y      Z        X      Y      Z        X      Y      Z
     1  14    -0.00  -0.02   0.03     0.03  -0.07   0.05    -0.01   0.06  -0.05
     2   8     0.00   0.00  -0.01    -0.01   0.01  -0.01     0.00  -0.01   0.01
     3   1    -0.00  -0.01  -0.01     0.01  -0.02  -0.14    -0.00   0.01   0.07
     4   8     0.00   0.04  -0.04    -0.03   0.06  -0.02     0.01  -0.07   0.04
     5   1    -0.04   0.13   0.27    -0.32   0.39   0.07     0.58  -0.22   0.03
     6   8    -0.00   0.01  -0.01    -0.01   0.03  -0.01     0.00  -0.02   0.01
     7   1     0.07  -0.06  -0.01     0.17  -0.13  -0.01    -0.17   0.12   0.01
     8   8    -0.03   0.00  -0.03    -0.11  -0.03  -0.01     0.14   0.01  -0.05
     9   6     0.06  -0.06   0.15     0.16   0.05   0.07    -0.16   0.03   0.11
    10   1    -0.17  -0.40   0.03    -0.15  -0.29  -0.05    -0.33  -0.10   0.04
    11   1     0.10   0.21  -0.21     0.30   0.18  -0.25     0.02   0.12  -0.15
    12   6     0.12   0.14  -0.12    -0.21  -0.11  -0.15    -0.04  -0.08  -0.13
    13   1    -0.40   0.20  -0.06    -0.21  -0.21  -0.15    -0.40  -0.27  -0.14
    14   1     0.35   0.14   0.41    -0.16  -0.25  -0.05     0.08  -0.11   0.14
    15   8    -0.09  -0.08  -0.02     0.18   0.11   0.07     0.03   0.05   0.09
                     25                     26                     27
                      A                      A                      A
 Frequencies --   1222.4963              1264.2948              1283.5833
 Red. masses --      1.9921                 1.2117                 1.1817
 Frc consts  --      1.7541                 1.1411                 1.1472
 IR Inten    --    618.1171                83.0774                11.3379
  Atom  AN      X      Y      Z        X      Y      Z        X      Y      Z
     1  14    -0.01  -0.07   0.04    -0.00  -0.01   0.00    -0.00   0.01  -0.00
     2   8    -0.00   0.00  -0.02     0.00   0.00  -0.00     0.00  -0.00   0.00
     3   1    -0.01  -0.01  -0.02    -0.00   0.00   0.00     0.00   0.00   0.00
     4   8    -0.01   0.05  -0.03     0.00   0.01   0.00     0.00   0.00  -0.00
     5   1    -0.58   0.43   0.15    -0.26   0.03  -0.15     0.02  -0.07   0.01
     6   8    -0.02   0.02  -0.01    -0.00   0.00  -0.00     0.00  -0.00   0.00
     7   1     0.14  -0.12  -0.01     0.02  -0.02  -0.00    -0.00   0.00  -0.00
     8   8     0.15   0.05  -0.01     0.05   0.01  -0.04    -0.04  -0.03  -0.02
     9   6    -0.16   0.01  -0.02    -0.05  -0.02   0.08     0.02   0.07  -0.02
    10   1     0.02   0.13   0.01    -0.51   0.10   0.07    -0.38   0.25   0.00
    11   1    -0.21  -0.02   0.10     0.24  -0.08  -0.10     0.61  -0.27  -0.15
    12   6     0.03  -0.07  -0.00     0.01   0.01   0.03     0.03  -0.05   0.04
    13   1    -0.05  -0.25  -0.02     0.20   0.52   0.14     0.05  -0.23   0.00
    14   1     0.19   0.37   0.21    -0.13  -0.41  -0.15     0.15   0.45   0.14
    15   8     0.03   0.01  -0.02     0.02   0.00  -0.03    -0.03  -0.00   0.00
                     28                     29                     30
                      A                      A                      A
 Frequencies --   1387.4140              1405.2219              1482.4516
 Red. masses --      1.2930                 1.3262                 1.1328
 Frc consts  --      1.4664                 1.5429                 1.4668
 IR Inten    --     20.5848                23.8376                49.3173
  Atom  AN      X      Y      Z        X      Y      Z        X      Y      Z
     1  14    -0.00  -0.01  -0.00     0.00   0.01   0.00     0.01   0.01   0.00
     2   8    -0.00   0.00   0.00    -0.00  -0.00  -0.00    -0.00  -0.00   0.00
     3   1     0.00  -0.00  -0.00    -0.00   0.00   0.00    -0.00  -0.00  -0.00
     4   8    -0.00   0.01   0.00     0.00  -0.00   0.00    -0.01  -0.02  -0.01
     5   1     0.02  -0.26  -0.15    -0.08  -0.09  -0.09     0.47   0.54   0.62
     6   8     0.00   0.00   0.00    -0.00   0.00  -0.00     0.00  -0.00   0.00
     7   1     0.00   0.00  -0.00     0.00  -0.00   0.00    -0.01   0.01  -0.00
     8   8     0.00   0.01   0.00    -0.01  -0.03   0.01     0.00  -0.00  -0.00
     9   6     0.06  -0.02   0.02    -0.09   0.11   0.02    -0.00   0.02  -0.00
    10   1    -0.11   0.11   0.03     0.56  -0.51  -0.09    -0.04  -0.02  -0.01
    11   1    -0.31   0.32  -0.03     0.36  -0.25   0.03     0.00  -0.02   0.04
    12   6    -0.03  -0.13  -0.03     0.03  -0.07  -0.03    -0.03  -0.06   0.04
    13   1     0.02   0.56   0.11     0.02   0.40   0.08     0.09   0.23   0.09
    14   1     0.08   0.58   0.00     0.07   0.06   0.01    -0.08   0.04  -0.07
    15   8    -0.00   0.02   0.01    -0.00   0.01  -0.00    -0.01  -0.01  -0.06
                     31                     32                     33
                      A                      A                      A
 Frequencies --   1500.0140              1508.0071              2128.4851
 Red. masses --      1.0959                 1.0910                 1.1071
 Frc consts  --      1.4529                 1.4618                 2.9551
 IR Inten    --      2.3617                 1.1862               974.1874
  Atom  AN      X      Y      Z        X      Y      Z        X      Y      Z
     1  14    -0.00   0.00  -0.00    -0.00  -0.00  -0.00    -0.01  -0.00   0.01
     2   8    -0.00   0.00   0.00     0.00   0.00   0.00     0.00   0.00  -0.00
     3   1    -0.00  -0.00  -0.00     0.00  -0.00   0.00    -0.00  -0.00   0.01
     4   8    -0.00   0.00   0.00     0.00   0.00  -0.00    -0.01   0.02  -0.00
     5   1     0.06  -0.08   0.01    -0.02  -0.04  -0.04    -0.20  -0.68   0.69
     6   8     0.00  -0.00   0.00     0.00   0.00   0.00    -0.00   0.00  -0.00
     7   1    -0.00   0.00   0.00     0.00   0.00  -0.00     0.02  -0.02  -0.00
     8   8     0.01   0.00   0.00     0.01   0.01  -0.00     0.01   0.00  -0.00
     9   6     0.01   0.01  -0.00     0.05   0.06  -0.03    -0.01   0.00  -0.00
    10   1    -0.07  -0.11  -0.04    -0.47  -0.46  -0.20     0.00   0.00   0.00
    11   1    -0.09  -0.03   0.11    -0.22  -0.28   0.58     0.01  -0.01   0.00
    12   6    -0.08   0.01  -0.04     0.02   0.00   0.01    -0.00   0.01   0.01
    13   1     0.70  -0.01  -0.09    -0.14  -0.03   0.01    -0.02  -0.03   0.03
    14   1     0.23  -0.13   0.61    -0.03   0.07  -0.11    -0.01  -0.06  -0.06
    15   8    -0.01   0.00  -0.01    -0.00  -0.00   0.01     0.05   0.03  -0.05
                     34                     35                     36
                      A                      A                      A
 Frequencies --   2961.9282              2975.1472              3006.7549
 Red. masses --      1.0633                 1.0598                 1.0940
 Frc consts  --      5.4960                 5.5271                 5.8275
 IR Inten    --     76.8824                84.8397               145.5997
  Atom  AN      X      Y      Z        X      Y      Z        X      Y      Z
     1  14    -0.00  -0.00  -0.00     0.00   0.00  -0.00     0.00   0.00   0.00
     2   8     0.00   0.00   0.00    -0.00   0.00  -0.00    -0.00  -0.00  -0.00
     3   1     0.00  -0.00  -0.00    -0.00   0.00  -0.00    -0.00   0.00  -0.00
     4   8    -0.00   0.00   0.00    -0.00  -0.00   0.00    -0.00  -0.00   0.00
     5   1     0.01   0.01  -0.01     0.02   0.02  -0.03     0.00   0.01  -0.00
     6   8     0.00   0.00   0.00    -0.00   0.00   0.00    -0.00   0.00   0.00
     7   1     0.00   0.00  -0.00    -0.00  -0.00   0.00     0.00  -0.00   0.00
     8   8     0.00   0.00  -0.00    -0.00  -0.00   0.00    -0.00   0.00   0.00
     9   6     0.02   0.04  -0.05     0.00  -0.00   0.03    -0.03  -0.04  -0.03
    10   1    -0.07  -0.22   0.84     0.03   0.08  -0.29    -0.01  -0.02   0.03
    11   1    -0.18  -0.21  -0.21    -0.07  -0.09  -0.07     0.35   0.45   0.39
    12   6    -0.02   0.00   0.01    -0.05   0.02  -0.03    -0.04   0.00   0.05
    13   1    -0.00  -0.00   0.03     0.04  -0.14   0.70    -0.03   0.08  -0.36
    14   1     0.29  -0.03  -0.14     0.54  -0.06  -0.27     0.55  -0.08  -0.26
    15   8    -0.00  -0.00   0.00    -0.00  -0.00  -0.00    -0.00  -0.00  -0.00
                     37                     38                     39
                      A                      A                      A
 Frequencies --   3020.1175              3957.9282              3963.7026
 Red. masses --      1.1055                 1.0650                 1.0651
 Frc consts  --      5.9408                 9.8294                 9.8590
 IR Inten    --    128.2400                26.3560                30.4718
  Atom  AN      X      Y      Z        X      Y      Z        X      Y      Z
     1  14     0.00   0.00  -0.00    -0.00   0.00   0.00     0.00   0.00  -0.00
     2   8    -0.00  -0.00   0.00    -0.06   0.02  -0.01    -0.01   0.00  -0.00
     3   1    -0.00  -0.00  -0.00     0.91  -0.34   0.21     0.09  -0.03   0.02
     4   8    -0.00   0.00   0.00     0.00  -0.00   0.00    -0.00   0.00  -0.00
     5   1     0.01  -0.00  -0.01    -0.00  -0.00   0.00     0.00   0.00  -0.00
     6   8    -0.00   0.00   0.00    -0.00  -0.00   0.01     0.03   0.03  -0.05
     7   1    -0.00  -0.00   0.00     0.04   0.05  -0.07    -0.40  -0.50   0.76
     8   8    -0.00  -0.00   0.00     0.00   0.00   0.00    -0.00  -0.00   0.00
     9   6    -0.02  -0.03  -0.06    -0.00  -0.00   0.00     0.00  -0.00   0.00
    10   1    -0.03  -0.11   0.33     0.00   0.00  -0.00    -0.00  -0.00   0.00
    11   1     0.31   0.41   0.35     0.00   0.00   0.00    -0.00  -0.00  -0.00
    12   6     0.02   0.01  -0.06     0.00   0.00  -0.00     0.00   0.00   0.00
    13   1     0.05  -0.13   0.57    -0.00  -0.00  -0.00    -0.00   0.00  -0.00
    14   1    -0.33   0.05   0.15     0.00  -0.00  -0.00    -0.00   0.00   0.00
    15   8    -0.00  -0.00   0.00     0.00   0.00  -0.00    -0.00  -0.00   0.00

 -------------------
 - Thermochemistry -
 -------------------
 Temperature   298.150 Kelvin.  Pressure   1.00000 Atm.
 Atom     1 has atomic number 14 and mass  27.97693
 Atom     2 has atomic number  8 and mass  15.99491
 Atom     3 has atomic number  1 and mass   1.00783
 Atom     4 has atomic number  8 and mass  15.99491
 Atom     5 has atomic number  1 and mass   1.00783
 Atom     6 has atomic number  8 and mass  15.99491
 Atom     7 has atomic number  1 and mass   1.00783
 Atom     8 has atomic number  8 and mass  15.99491
 Atom     9 has atomic number  6 and mass  12.00000
 Atom    10 has atomic number  1 and mass   1.00783
 Atom    11 has atomic number  1 and mass   1.00783
 Atom    12 has atomic number  6 and mass  12.00000
 Atom    13 has atomic number  1 and mass   1.00783
 Atom    14 has atomic number  1 and mass   1.00783
 Atom    15 has atomic number  8 and mass  15.99491
 Molecular mass:   139.00628 amu.
 Principal axes and moments of inertia in atomic units:
                           1         2         3
     Eigenvalues --   641.661251199.939351321.84961
           X            0.99979   0.01818   0.00954
           Y           -0.01779   0.99905  -0.03970
           Z           -0.01025   0.03952   0.99917
 This molecule is an asymmetric top.
 Rotational symmetry number  1.
 Warning -- assumption of classical behavior for rotation
           may cause significant error
 Rotational temperatures (Kelvin)      0.13498     0.07218     0.06552
 Rotational constants (GHZ):           2.81261     1.50403     1.36532
    1 imaginary frequencies ignored.
 Zero-point vibrational energy     283630.4 (Joules/Mol)
                                   67.78929 (Kcal/Mol)
 Warning -- explicit consideration of  12 degrees of freedom as
           vibrations may cause significant error
 Vibrational temperatures:    167.72   228.19   296.54   355.43   417.23
          (Kelvin)            461.60   477.43   508.53   583.88   592.48
                              699.58   860.00   968.34  1095.23  1174.02
                             1320.00  1325.79  1333.17  1387.60  1437.69
                             1624.32  1646.51  1687.70  1758.90  1819.04
                             1846.79  1996.18  2021.80  2132.92  2158.19
                             2169.69  3062.42  4261.55  4280.57  4326.05
                             4345.28  5694.58  5702.88
 
 Zero-point correction=                           0.108029 (Hartree/Particle)
 Thermal correction to Energy=                    0.116449
 Thermal correction to Enthalpy=                  0.117393
 Thermal correction to Gibbs Free Energy=         0.075325
 Sum of electronic and zero-point Energies=           -746.219467
 Sum of electronic and thermal Energies=              -746.211047
 Sum of electronic and thermal Enthalpies=            -746.210103
 Sum of electronic and thermal Free Energies=         -746.252171
 
                     E (Thermal)             CV                S
                      KCal/Mol        Cal/Mol-Kelvin    Cal/Mol-Kelvin
 Total                   73.073             31.233             88.541
 Electronic               0.000              0.000              0.000
 Translational            0.889              2.981             40.700
 Rotational               0.889              2.981             28.411
 Vibrational             71.295             25.272             19.430
 Vibration     1          0.608              1.936              3.156
 Vibration     2          0.621              1.893              2.566
 Vibration     3          0.641              1.831              2.078
 Vibration     4          0.661              1.768              1.752
 Vibration     5          0.686              1.692              1.474
 Vibration     6          0.706              1.634              1.306
 Vibration     7          0.714              1.612              1.251
 Vibration     8          0.730              1.568              1.151
 Vibration     9          0.771              1.458              0.942
 Vibration    10          0.776              1.445              0.920
 Vibration    11          0.842              1.281              0.693
 Vibration    12          0.956              1.037              0.454
                       Q            Log10(Q)             Ln(Q)
 Total Bot       0.225501D-34        -34.646852        -79.777325
 Total V=0       0.110420D+16         15.043048         34.637898
 Vib (Bot)       0.969334D-48        -48.013527       -110.555231
 Vib (Bot)    1  0.175444D+01          0.244139          0.562151
 Vib (Bot)    2  0.127525D+01          0.105595          0.243142
 Vib (Bot)    3  0.965149D+00         -0.015406         -0.035473
 Vib (Bot)    4  0.791146D+00         -0.101744         -0.234273
 Vib (Bot)    5  0.659446D+00         -0.180821         -0.416355
 Vib (Bot)    6  0.585642D+00         -0.232368         -0.535046
 Vib (Bot)    7  0.562439D+00         -0.249925         -0.575473
 Vib (Bot)    8  0.520829D+00         -0.283305         -0.652334
 Vib (Bot)    9  0.437327D+00         -0.359194         -0.827075
 Vib (Bot)   10  0.429060D+00         -0.367482         -0.846159
 Vib (Bot)   11  0.342121D+00         -0.465820         -1.072591
 Vib (Bot)   12  0.250393D+00         -0.601377         -1.384722
 Vib (V=0)       0.474650D+02          1.676373          3.859992
 Vib (V=0)    1  0.232430D+01          0.366292          0.843418
 Vib (V=0)    2  0.186977D+01          0.271787          0.625814
 Vib (V=0)    3  0.158697D+01          0.200570          0.461829
 Vib (V=0)    4  0.143590D+01          0.157125          0.361793
 Vib (V=0)    5  0.132757D+01          0.123057          0.283349
 Vib (V=0)    6  0.127005D+01          0.103821          0.239056
 Vib (V=0)    7  0.125255D+01          0.097796          0.225185
 Vib (V=0)    8  0.122199D+01          0.087066          0.200477
 Vib (V=0)    9  0.116427D+01          0.066054          0.152094
 Vib (V=0)   10  0.115886D+01          0.064030          0.147434
 Vib (V=0)   11  0.110584D+01          0.043694          0.100609
 Vib (V=0)   12  0.105919D+01          0.024975          0.057507
 Electronic      0.100000D+01          0.000000          0.000000
 Translational   0.644177D+08          7.809005         17.980900
 Rotational      0.361135D+06          5.557669         12.797006
 ***** Axes restored to original set *****
 -------------------------------------------------------------------
 Center     Atomic                   Forces (Hartrees/Bohr)
 Number     Number              X              Y              Z
 -------------------------------------------------------------------
      1       14           0.018749383   -0.009746246   -0.004479129
      2        8          -0.000001184    0.000005826   -0.000003562
      3        1           0.000000481    0.000001276    0.000001097
      4        8          -0.000011328    0.000009465   -0.000009944
      5        1           0.000016730    0.000015750   -0.000046072
      6        8          -0.000028688    0.000015231    0.000009473
      7        1           0.000000822    0.000003074   -0.000002630
      8        8           0.000021840    0.000034511    0.000002693
      9        6          -0.000037094   -0.000005923   -0.000010826
     10        1           0.000003198    0.000005595    0.000001813
     11        1           0.000010528    0.000004545    0.000005436
     12        6           0.000016462   -0.000010304    0.000008526
     13        1          -0.000004726   -0.000001372   -0.000007148
     14        1          -0.000002275    0.000000473   -0.000003824
     15        8          -0.018734149    0.009668100    0.004534098
 -------------------------------------------------------------------
 Cartesian Forces:  Max     0.018749383 RMS     0.004549964
 FormGI is forming the generalized inverse of G from B-inverse, IUseBI=4.

 GradGradGradGradGradGradGradGradGradGradGradGradGradGradGradGradGradGrad
 Berny optimization.
 Internal  Forces:  Max     0.066221537 RMS     0.013889610
 Search for a saddle point.
 Step number   1 out of a maximum of   70
 All quantities printed in internal units (Hartrees-Bohrs-Radians)
 Swapping is turned off.
 Second derivative matrix not updated -- analytic derivatives used.
 ITU=  0
     Eigenvalues ---   -0.03130  -0.00319   0.00285   0.00402   0.00477
     Eigenvalues ---    0.02172   0.04878   0.05172   0.06105   0.07313
     Eigenvalues ---    0.07512   0.08207   0.09493   0.09774   0.10142
     Eigenvalues ---    0.10230   0.10857   0.12291   0.15521   0.16289
     Eigenvalues ---    0.17467   0.21631   0.24612   0.26422   0.26946
     Eigenvalues ---    0.28065   0.30124   0.30912   0.31449   0.31902
     Eigenvalues ---    0.32012   0.34041   0.40852   0.41733   0.54521
     Eigenvalues ---    0.56592   0.56770   1.06731   2.96972
 Eigenvectors required to have negative eigenvalues:
                          R6        D8        D1        A9        A4
   1                    0.71805  -0.24368   0.21196  -0.20965  -0.20320
                          R2        D15       D21       D23       D3
   1                    0.18148   0.16757   0.14182   0.13989  -0.13941
 RFO step:  Lambda0=1.839485333D-02 Lambda=-8.63319041D-03.
 Linear search not attempted -- option 19 set.
 Maximum step size (   0.300) exceeded in Quadratic search.
    -- Step size scaled by   0.483
 Iteration  1 RMS(Cart)=  0.10321698 RMS(Int)=  0.00807683
 Iteration  2 RMS(Cart)=  0.01172113 RMS(Int)=  0.00025248
 Iteration  3 RMS(Cart)=  0.00008552 RMS(Int)=  0.00024788
 Iteration  4 RMS(Cart)=  0.00000001 RMS(Int)=  0.00024788
 Variable       Old X    -DE/DX   Delta X   Delta X   Delta X     New X
                                 (Linear)    (Quad)   (Total)
    R1        3.17003  -0.00000   0.00000  -0.00927  -0.00927   3.16076
    R2        3.00340   0.00001   0.00000   0.05361   0.05361   3.05701
    R3        3.21436  -0.00003   0.00000   0.00199   0.00199   3.21635
    R4        3.18662   0.00340   0.00000  -0.00866  -0.00866   3.17796
    R5        1.80484   0.00000   0.00000   0.00062   0.00062   1.80546
    R6        2.00536   0.00005   0.00000   0.25355   0.25355   2.25891
    R7        1.80409   0.00000   0.00000  -0.00035  -0.00035   1.80374
    R8        2.62670   0.01952   0.00000   0.01461   0.01461   2.64131
    R9        2.07946  -0.00000   0.00000  -0.00227  -0.00227   2.07719
   R10        2.07420  -0.00001   0.00000  -0.00171  -0.00171   2.07249
   R11        2.87667   0.01490   0.00000   0.00893   0.00893   2.88560
   R12        2.07661   0.00001   0.00000   0.00938   0.00938   2.08599
   R13        2.07611   0.00000   0.00000   0.00495   0.00495   2.08106
   R14        2.63293  -0.00463   0.00000  -0.02447  -0.02447   2.60846
    A1        2.11965   0.00000   0.00000   0.01886   0.01792   2.13757
    A2        1.72267   0.00000   0.00000  -0.00696  -0.00699   1.71568
    A3        1.89454   0.00001   0.00000   0.03320   0.03258   1.92712
    A4        1.84852   0.00000   0.00000  -0.05837  -0.05843   1.79009
    A5        2.07611  -0.00001   0.00000  -0.00872  -0.00978   2.06633
    A6        1.71416   0.00001   0.00000   0.00514   0.00503   1.71919
    A7        1.86643   0.00000   0.00000  -0.00251  -0.00251   1.86392
    A8        1.85633  -0.00000   0.00000   0.00808   0.00808   1.86441
    A9        2.12068   0.06622   0.00000  -0.06022  -0.06022   2.06046
   A10        1.92851  -0.01317   0.00000   0.00559   0.00571   1.93422
   A11        1.91105  -0.02314   0.00000  -0.01045  -0.01039   1.90065
   A12        1.90116   0.05735   0.00000  -0.02869  -0.02867   1.87249
   A13        1.88405   0.00538   0.00000   0.00537   0.00514   1.88919
   A14        1.89872  -0.00971   0.00000   0.01380   0.01370   1.91242
   A15        1.94048  -0.01766   0.00000   0.01510   0.01484   1.95532
   A16        1.90675  -0.00642   0.00000  -0.02000  -0.02000   1.88675
   A17        1.93575  -0.00861   0.00000   0.00647   0.00645   1.94220
   A18        1.85922   0.03152   0.00000  -0.00652  -0.00653   1.85269
   A19        1.88662   0.00302   0.00000  -0.01114  -0.01127   1.87535
   A20        1.93980  -0.00495   0.00000   0.01602   0.01592   1.95572
   A21        1.93602  -0.01468   0.00000   0.01510   0.01505   1.95108
   A22        1.93831  -0.00003   0.00000   0.09353   0.09353   2.03184
    D1       -1.91993  -0.00001   0.00000   0.03945   0.04008  -1.87985
    D2        0.08289  -0.00000   0.00000  -0.03053  -0.03069   0.05220
    D3        1.85894   0.00001   0.00000  -0.02008  -0.02054   1.83839
    D4       -2.30747   0.00000   0.00000   0.00614   0.00572  -2.30175
    D5       -0.10258   0.00001   0.00000   0.00057   0.00073  -0.10185
    D6        2.05028  -0.00001   0.00000  -0.02782  -0.02755   2.02272
    D7        1.18755  -0.00000   0.00000  -0.11017  -0.11027   1.07728
    D8       -1.33517   0.00001   0.00000  -0.17908  -0.17894  -1.51411
    D9        2.96959   0.00000   0.00000  -0.10845  -0.10849   2.86110
   D10       -1.42872  -0.00641   0.00000   0.16408   0.16404  -1.26469
   D11        2.78151   0.00938   0.00000   0.16055   0.16073   2.94224
   D12        0.65610   0.00944   0.00000   0.16652   0.16639   0.82249
   D13        1.24244  -0.00364   0.00000   0.02177   0.02178   1.26422
   D14       -2.96290  -0.00924   0.00000  -0.00063  -0.00063  -2.96353
   D15       -0.85439  -0.01240   0.00000   0.01735   0.01732  -0.83707
   D16       -2.93749   0.00879   0.00000   0.01969   0.01960  -2.91789
   D17       -0.85965   0.00319   0.00000  -0.00271  -0.00280  -0.86245
   D18        1.24887   0.00004   0.00000   0.01527   0.01515   1.26401
   D19       -0.86499  -0.00131   0.00000   0.04404   0.04416  -0.82083
   D20        1.21285  -0.00691   0.00000   0.02164   0.02176   1.23461
   D21       -2.96182  -0.01006   0.00000   0.03962   0.03970  -2.92212
   D22        1.72993   0.00263   0.00000  -0.09966  -0.09971   1.63022
   D23       -0.34543  -0.00598   0.00000  -0.08044  -0.08032  -0.42575
   D24       -2.44491   0.00337   0.00000  -0.08720  -0.08727  -2.53218
         Item               Value     Threshold  Converged?
 Maximum Force            0.066222     0.000450     NO 
 RMS     Force            0.013890     0.000300     NO 
 Maximum Displacement     0.377969     0.001800     NO 
 RMS     Displacement     0.105728     0.001200     NO 
 Predicted change in Energy= 3.840322D-03
 GradGradGradGradGradGradGradGradGradGradGradGradGradGradGradGradGradGrad

                          Input orientation:                          
 ---------------------------------------------------------------------
 Center     Atomic      Atomic             Coordinates (Angstroms)
 Number     Number       Type             X           Y           Z
 ---------------------------------------------------------------------
      1         14           0        0.697613    0.071565   -0.012265
      2          8           0        0.912217    0.049623    1.646369
      3          1           0        1.786519   -0.300516    1.807000
      4          8           0        0.695997    1.443282   -0.869783
      5          1           0       -0.427166    1.528952   -0.481997
      6          8           0        2.175487   -0.643708   -0.460746
      7          1           0        2.547854   -0.099143   -1.150571
      8          8           0       -0.333364   -1.169389   -0.486863
      9          6           0       -1.642183   -1.160465    0.003584
     10          1           0       -1.662070   -1.430181    1.068994
     11          1           0       -2.233659   -1.900459   -0.548999
     12          6           0       -2.184301    0.255742   -0.175806
     13          1           0       -2.372229    0.417375   -1.251473
     14          1           0       -3.142956    0.386340    0.350187
     15          8           0       -1.211625    1.104094    0.313621
 ---------------------------------------------------------------------
                    Distance matrix (angstroms):
                    1          2          3          4          5
     1  Si   0.000000
     2  O    1.672603   0.000000
     3  H    2.152645   0.955408   0.000000
     4  O    1.617699   2.884451   3.375684   0.000000
     5  H    1.899935   2.917585   3.672446   1.191306   0.000000
     6  O    1.702017   2.552742   2.326316   2.590701   3.390384
     7  H    2.179053   3.243503   3.060622   2.426374   3.456649
     8  O    1.681702   2.754657   3.242013   2.834124   2.699975
     9  C    2.644389   3.269252   3.968351   3.606848   2.990822
    10  H    2.998744   3.024919   3.703183   4.192389   3.561886
    11  H    3.573418   4.303370   4.926700   4.457173   3.876695
    12  C    2.892420   3.598781   4.473069   3.191860   2.191424
    13  H    3.328537   4.395488   5.211987   3.257635   2.368748
    14  H    3.870456   4.270585   5.185924   4.164494   3.061635
    15  O    2.194883   2.720079   3.632076   2.270356   1.195362
                    6          7          8          9         10
     6  O    0.000000
     7  H    0.954498   0.000000
     8  O    2.563465   3.144416   0.000000
     9  C    3.880366   4.473800   1.397721   0.000000
    10  H    4.205411   4.941821   2.062562   1.099199   0.000000
    11  H    4.585605   5.144851   2.037019   1.096714   1.779262
    12  C    4.460711   4.844522   2.356633   1.526996   2.159766
    13  H    4.736335   4.948150   2.694331   2.144229   3.049977
    14  H    5.477631   5.905361   3.318848   2.182902   2.451419
    15  O    3.889343   4.210145   2.565315   2.325883   2.682544
                   11         12         13         14         15
    11  H    0.000000
    12  C    2.188815   0.000000
    13  H    2.425907   1.103858   0.000000
    14  H    2.620077   1.101247   1.777723   0.000000
    15  O    3.288770   1.380340   2.065940   2.060715   0.000000
 Stoichiometry    C2H7O5Si(1-)
 Framework group  C1[X(C2H7O5Si)]
 Deg. of freedom    39
 Full point group                 C1      NOp   1
 Largest Abelian subgroup         C1      NOp   1
 Largest concise Abelian subgroup C1      NOp   1
                         Standard orientation:                         
 ---------------------------------------------------------------------
 Center     Atomic      Atomic             Coordinates (Angstroms)
 Number     Number       Type             X           Y           Z
 ---------------------------------------------------------------------
      1         14           0        0.709135    0.056278   -0.011154
      2          8           0        0.944523   -0.160633    1.630535
      3          1           0        1.815351   -0.538971    1.736945
      4          8           0        0.717539    1.518006   -0.704140
      5          1           0       -0.399144    1.573547   -0.292868
      6          8           0        2.170064   -0.622395   -0.560655
      7          1           0        2.541878   -0.006723   -1.188166
      8          8           0       -0.346655   -1.107086   -0.611166
      9          6           0       -1.648821   -1.137117   -0.104128
     10          1           0       -1.659233   -1.528163    0.923108
     11          1           0       -2.258537   -1.799928   -0.729995
     12          6           0       -2.171479    0.297630   -0.110657
     13          1           0       -2.370625    0.585367   -1.157581
     14          1           0       -3.121239    0.379526    0.440701
     15          8           0       -1.179789    1.070155    0.459514
 ---------------------------------------------------------------------
 Rotational constants (GHZ):           2.8156014           1.5267903           1.3825535
 Standard basis: def2TZVPP (5D, 7F)
 There are   405 symmetry adapted cartesian basis functions of A   symmetry.
 There are   357 symmetry adapted basis functions of A   symmetry.
   357 basis functions,   545 primitive gaussians,   405 cartesian basis functions
    37 alpha electrons       37 beta electrons
       nuclear repulsion energy       541.9064040706 Hartrees.
 NAtoms=   15 NActive=   15 NUniq=   15 SFac= 1.00D+00 NAtFMM=   60 NAOKFM=F Big=F
[...]
 ! D24   D(14,12,15,5)        -157.8208         -DE/DX =    0.0                 !
 --------------------------------------------------------------------------------
 GradGradGradGradGradGradGradGradGradGradGradGradGradGradGradGradGradGrad


 ----------------------------------------------------------------------

 Electric dipole moment (input orientation):
 (Debye = 10**-18 statcoulomb cm , SI units = C m)
                  (au)            (Debye)         (10**-30 SI)
   Tot        0.132227D+01      0.336087D+01      0.112107D+02
   x          0.819390D+00      0.208268D+01      0.694707D+01
   y         -0.100166D+01     -0.254596D+01     -0.849240D+01
   z         -0.271443D+00     -0.689939D+00     -0.230139D+01

 Dipole polarizability, Alpha (input orientation).
 (esu units = cm**3 , SI units = C**2 m**2 J**-1)
 Alpha(0;0):
               (au)            (10**-24 esu)      (10**-40 SI)
   iso        0.707175D+02      0.104793D+02      0.116597D+02
   aniso      0.195540D+02      0.289761D+01      0.322402D+01
   xx         0.832584D+02      0.123376D+02      0.137275D+02
   yx         0.276065D+01      0.409086D+00      0.455170D+00
   yy         0.647417D+02      0.959373D+01      0.106745D+02
   zx         0.704639D+00      0.104417D+00      0.116179D+00
   zy        -0.113698D+01     -0.168483D+00     -0.187463D+00
   zz         0.641524D+02      0.950640D+01      0.105773D+02

 ----------------------------------------------------------------------

 Dipole orientation:
    14          1.03263105         -0.52314560          0.93948075
     8          3.27406984          1.63055153          0.55369584
     1          4.51933214          1.45613327          1.84653482
     8          1.07003791         -2.96238770         -0.92396705
     1          0.35878538         -2.05230899         -2.48226674
     8          1.77033663         -1.73040456          3.77633581
     1          1.56944486         -3.52181147          3.75128134
     8         -1.70499361          0.85274508          1.44540837
     6         -2.95249985          2.36751268         -0.36099334
     1         -1.97052856          4.18800278         -0.52312545
     1         -4.87692641          2.71322034          0.33018889
     6         -2.95650498          1.07985528         -2.94855457
     1         -4.26198529         -0.56995271         -2.80626019
     1         -3.89138893          2.41266099         -4.28567130
     8         -0.56909124          0.44156100         -3.63177150

 Electric dipole moment (dipole orientation):
 (Debye = 10**-18 statcoulomb cm , SI units = C m)
                  (au)            (Debye)         (10**-30 SI)
   Tot        0.132227D+01      0.336087D+01      0.112107D+02
   x          0.000000D+00      0.000000D+00      0.000000D+00
   y          0.000000D+00      0.000000D+00      0.000000D+00
   z          0.132227D+01      0.336087D+01      0.112107D+02

 Dipole polarizability, Alpha (dipole orientation).
 (esu units = cm**3 , SI units = C**2 m**2 J**-1)
 Alpha(0;0):
               (au)            (10**-24 esu)      (10**-40 SI)
   iso        0.707175D+02      0.104793D+02      0.116597D+02
   aniso      0.195540D+02      0.289761D+01      0.322402D+01
   xx         0.746242D+02      0.110582D+02      0.123039D+02
   yx        -0.636768D+01     -0.943592D+00     -0.104989D+01
   yy         0.688256D+02      0.101989D+02      0.113478D+02
   zx         0.793163D+01      0.117535D+01      0.130775D+01
   zy        -0.354184D+01     -0.524846D+00     -0.583970D+00
   zz         0.687027D+02      0.101807D+02      0.113275D+02

 ----------------------------------------------------------------------

 Test job not archived.
 1\1\GINC-CDR1852\Freq\RwB97XD\def2TZVPP\C2H7O5Si1(1-)\ARHENDER\15-Feb-
 2024\0\\#N Geom=AllCheck Guess=TCheck SCRF=Check Test GenChk RwB97XD/d
 ef2TZVPP Freq\\TS opt of scan peak max corresponding to proton transfe
 r from ethylene glycol to ligand\\-1,1\Si,0.7882435054,-0.0187481252,0
 .0268535764\O,1.0260725393,0.0007930429,1.6671268128\H,1.9349875821,-0
 .2124588999,1.8651140288\O,0.6933952453,1.4121877658,-0.7362597683\H,-
 0.2616381078,1.6379666482,-0.4353935501\O,2.2333320375,-0.6692178332,-
 0.5233603881\H,2.5218898416,-0.2039458399,-1.3046309984\O,-0.316554653
 8,-1.1672241971,-0.3742876208\C,-1.6709354053,-1.1201501908,0.02008030
 42\H,-1.7452289811,-1.3574666279,1.0894777819\H,-2.2094400003,-1.88968
 9455,-0.5474853475\C,-2.2555123346,0.2732692459,-0.2163188094\H,-2.339
 552436,0.4045440935,-1.3212265036\H,-3.3057761294,0.2470997509,0.15664
 30661\O,-1.4871497029,1.2161516219,0.384917416\\Version=ES64L-G16RevC.
 01\State=1-A\HF=-746.3347896\RMSD=1.976e-09\RMSF=4.052e-06\ZeroPoint=0
 .1069391\Thermal=0.1157504\ETot=-746.2190392\HTot=-746.218095\GTot=-74
 6.2611269\Dipole=0.8193896,-1.0016562,-0.2714429\DipoleDeriv=2.8648807
 ,-0.0930254,-0.0459376,-0.1137075,1.8822436,-0.0714143,0.1534279,-0.04
 52445,1.9382441,-0.6838869,-0.0344469,-0.1434648,-0.0316906,-0.6342449
 ,0.0282748,-0.2925636,0.0019141,-1.2222175,0.1335522,0.0350789,-0.0045
 636,0.0345119,0.2709891,0.0120102,-0.0009651,0.0080797,0.3365376,-1.42
 81144,-0.0247967,0.1265541,0.0857475,-1.0030145,0.1567996,0.235188,0.2
 082314,-0.7691075,1.064605,0.1288656,-0.2060544,0.0823107,0.2660001,-0
 .0330408,-0.3881832,-0.0722392,0.2857484,-1.2519396,0.1695161,0.218873
 6,0.252904,-0.6634441,-0.1628859,0.1714455,-0.1289754,-0.7054858,0.340
 982,-0.0154462,-0.0121423,-0.0485527,0.2483469,0.074185,-0.0136281,0.0
 651546,0.1904254,-1.594074,-0.194487,0.0641111,-0.2417394,-0.8495436,-
 0.0414131,0.0486818,-0.0651895,-0.5756709,0.9298129,0.2331899,-0.04290
 7,0.0546372,0.2364579,0.0560366,-0.1278707,0.0465813,0.3955626,-0.0519
 1,-0.0052705,0.0052599,-0.0051966,-0.0033532,0.048348,0.0906643,0.1224
 064,-0.2225983,-0.1276892,-0.1293702,-0.0602306,-0.1380669,-0.1681758,
 -0.0839293,-0.1031548,-0.1569752,-0.0466629,0.8324411,0.1854919,0.0970
 629,0.4945353,0.5596325,0.1497653,0.2673333,0.155215,0.5902217,-0.0467
 652,-0.0070797,-0.0364625,-0.0023688,-0.0491889,0.0151374,-0.1699851,0
 .0103347,-0.4444662,-0.5355307,-0.0556599,0.0828105,-0.0784128,-0.0282
 99,0.0238865,0.1524994,0.0092798,-0.0381082,-1.4463641,-0.1925598,-0.0
 429093,-0.3449115,-1.0644061,-0.1717601,-0.0228896,-0.1585733,-0.71242
 27\Polar=83.2584242,2.7606491,64.7417063,0.7046393,-1.1369796,64.15236
 93\Quadrupole=-0.4400026,-3.0169103,3.4569129,3.9373161,1.5695771,-1.4
 964713\PG=C01 [X(C2H7O5Si1)]\NImag=1\\0.43540976,0.03769564,0.49884454
 ,0.03737188,-0.06431081,0.48253586,-0.05070247,-0.00087860,-0.04788878
 ,0.55166039,0.00097498,-0.04074631,0.00466170,-0.12040877,0.05600981,-
 0.01206098,-0.00588318,-0.23634858,0.14451155,-0.02035858,0.32623556,-
 0.00694673,0.00190655,0.00019761,-0.50026072,0.11584094,-0.12787983,0.
 50919484,0.00061174,0.00306634,-0.00094251,0.11807951,-0.02768616,0.03
 017351,-0.11821678,0.02929327,-0.03116088,0.00656845,-0.01457271,-0.09
 417521,0.02173254,-0.04546758,0.12171656,-0.02749199,0.05879375,-0.059
 37431,0.00159734,0.00152018,0.00850347,0.00560435,-0.00729878,0.000536
 91,-0.00091819,0.00239498,0.33694746,0.02005971,-0.23186086,0.09605477
 ,0.00103097,0.00113413,0.00663643,-0.00101417,-0.00074333,-0.00042555,
 -0.07303444,0.29762675,-0.00591256,0.10391583,-0.10030880,-0.00522433,
 0.01425052,-0.00979751,0.00176482,0.00123540,-0.00190372,-0.08565422,-
 0.10402105,0.14849609,0.01784420,0.04226094,-0.02415049,-0.00261842,-0
 .00394011,0.00509742,-0.00080677,0.00025342,-0.00075074,-0.22523047,0.
 04399520,0.06140859,0.20728612,0.03105279,-0.02016671,0.00252947,-0.00
 136701,-0.00016236,-0.00040573,0.00006398,0.00010945,-0.00024454,0.061
 20676,-0.05423850,-0.01448118,-0.09022917,0.09337282,-0.02088403,-0.00
 179165,0.01749550,0.00280670,0.00089480,-0.00278058,0.00014756,-0.0005
 1697,0.00069956,0.05430092,-0.00759394,-0.05144944,-0.02480486,0.01461
 543,0.04932516,-0.16231950,0.06675236,0.03861303,-0.00121932,0.0040660
 0,0.01213337,-0.00263803,-0.00029282,0.00060266,-0.01220919,0.01524524
 ,0.00329421,0.00456938,0.00274713,-0.00169392,0.27199504,0.04615626,-0
 .06977899,-0.00954633,0.00245075,0.00889778,-0.00218345,0.00009185,-0.
 00225682,-0.00008455,0.03267158,-0.01591710,-0.00415742,-0.00927374,-0
 .00379166,0.00638508,-0.00228574,0.21357058,0.05756395,-0.02483184,-0.
 07072331,0.01882646,-0.00865578,-0.02267746,0.00360882,-0.00068125,0.0
 0445746,-0.00453067,0.00471543,0.00853884,0.00239178,0.00147928,0.0001
 1544,-0.21123961,-0.19906008,0.44331610,-0.01102753,-0.01027868,0.0247
 1482,-0.00054106,0.00124583,0.00059070,-0.00000712,0.00025910,0.000221
 01,0.00438057,-0.00260942,-0.00286123,-0.00256931,-0.00074352,0.000605
 01,-0.06931618,-0.06385749,0.13052135,0.08054473,0.00726957,0.00546627
 ,-0.00801595,0.00232187,-0.00137274,-0.00376560,0.00042905,-0.00003139
 ,0.00061139,-0.00251192,-0.00132022,0.00127324,0.00175251,-0.00019651,
 -0.00070818,-0.08286072,-0.13761291,0.22827658,0.07487437,0.13587917,0
 .00496549,0.00719862,-0.01017761,0.00167044,-0.00184593,-0.00167659,0.
 00076515,0.00044803,0.00067567,-0.00500441,0.00245126,0.00033504,0.001
 40819,0.00052281,-0.00095561,0.15114079,0.21018873,-0.37181352,-0.1518
 0475,-0.21806385,0.38301857,-0.14129910,-0.09262872,-0.03231911,-0.003
 56409,-0.01012493,-0.01329330,0.00123783,-0.00117775,0.00101878,0.0112
 0414,-0.01246875,-0.00315835,-0.01172700,-0.00099695,0.00468445,-0.028
 99808,-0.01135005,0.00290440,-0.00236985,0.00014210,-0.00205190,0.4787
 5610,-0.09553232,-0.13361616,-0.03368518,-0.00600974,0.00337425,-0.004
 97158,0.00044972,-0.00167561,-0.00104657,-0.00910400,-0.01501141,-0.00
 207908,-0.00399825,0.00272690,0.00150138,-0.00253372,0.00396596,0.0003
 9748,0.00055348,-0.00057185,-0.00054155,0.11527794,0.21097033,-0.02817
 384,-0.03160194,-0.04805284,-0.01619821,-0.00957370,-0.00807008,0.0002
 3819,-0.00285718,-0.00249397,0.00231182,0.00752201,0.00704895,0.003031
 59,-0.00024962,-0.00250156,0.00676489,0.00242472,0.00495491,-0.0004288
 1,-0.00015903,0.00006852,-0.03632962,0.04467336,0.11622702,-0.03475885
 ,-0.02973148,-0.00570260,0.00393188,0.00361135,0.00608703,-0.00026500,
 0.00076638,0.00002489,-0.00385384,0.00853586,0.00201006,0.00753806,-0.
 00204307,-0.00322428,0.00616924,0.00123246,0.00003611,-0.00050075,-0.0
 0020491,0.00003094,-0.21345092,-0.01035523,0.04053611,0.47846630,-0.02
 047134,-0.00790638,0.00123156,0.00028979,-0.00020565,0.00033225,-0.000
 00066,-0.00006835,0.00008352,0.00114776,-0.00010664,-0.00042684,-0.000
 05265,-0.00169940,-0.00023623,-0.00076598,0.00070979,-0.00050798,0.000
 05308,0.00024478,0.00001607,0.00943420,-0.06592569,-0.00390806,0.06157
 735,0.50727103,-0.00231402,0.00518287,0.00285643,-0.00052395,-0.001796
 54,-0.00426089,0.00019738,-0.00011348,0.00008833,-0.00057652,-0.001465
 10,-0.00017902,-0.00007262,0.00022046,0.00015842,-0.00212778,-0.001090
 26,0.00204997,-0.00064758,-0.00018572,-0.00015811,0.04688516,-0.003397
 87,-0.08192259,0.03208762,0.02187658,0.57936888,0.00275156,0.00428606,
 0.00618877,0.00030479,0.00018765,-0.00104093,0.00002269,0.00005827,0.0
 0001564,0.00011899,-0.00132120,-0.00049127,-0.00063952,0.00005533,0.00
 022390,-0.00116509,-0.00023036,-0.00079084,0.00018673,0.00006991,-0.00
 005305,-0.02440100,-0.01002296,0.03884131,-0.04474522,-0.00379659,-0.0
 0061301,0.06415569,-0.00031169,0.00053394,0.00141042,0.00024149,-0.000
 14394,-0.00026800,0.00002562,0.00011597,0.00000791,0.00016223,-0.00020
 944,-0.00032057,-0.00042164,0.00011788,0.00030089,-0.00009870,-0.00010
 879,-0.00013154,0.00001072,-0.00000530,-0.00001003,-0.00169957,0.00354
 658,0.00035371,-0.00307135,-0.06322870,0.04681808,0.00144521,0.0614426
 2,-0.00312875,-0.00384090,-0.00329075,0.00043204,0.00029984,0.00153476
 ,-0.00000982,0.00013270,-0.00000960,0.00018532,0.00090200,0.00032073,0
 .00026506,-0.00022292,-0.00016678,0.00093687,0.00014159,0.00024144,-0.
 00010507,-0.00002399,0.00003571,0.01722154,0.00335322,-0.00514650,0.00
 391688,0.05025970,-0.28046008,-0.01528043,-0.05618462,0.30644175,0.000
 80024,0.00333778,0.00067910,-0.00067773,-0.00060471,-0.00127939,0.0000
 3985,-0.00008593,-0.00001058,0.00023518,-0.00161553,0.00011770,-0.0010
 4054,0.00033562,0.00042951,-0.00151282,-0.00017270,0.00052776,-0.00010
 462,-0.00002195,-0.00012991,-0.03796201,-0.02519128,-0.01059631,-0.091
 94873,-0.07309278,-0.05846576,0.00228026,0.00000155,-0.00148266,0.1203
 9852,0.00241203,-0.00047782,0.00015627,-0.00045232,0.00019298,-0.00046
 546,-0.00005223,-0.00002212,-0.00006310,-0.00135013,-0.00004655,0.0006
 1646,0.00137785,-0.00004010,-0.00071753,-0.00043209,0.00024977,0.00007
 355,0.00007558,-0.00006159,-0.00007957,-0.00145053,0.00402286,0.002490
 86,-0.07739949,-0.17176713,-0.09080577,0.00379256,0.00529160,0.0037564
 6,0.08989716,0.18218141,0.00214018,0.00046578,-0.00037363,-0.00013647,
 0.00004006,0.00030285,0.00003589,0.00000573,0.00008240,-0.00055133,0.0
 0024084,0.00018814,0.00076171,-0.00001046,-0.00026911,-0.00006624,0.00
 013681,0.00006490,0.00007277,-0.00001892,-0.00001097,0.00777265,0.0089
 5939,0.00914801,-0.06334417,-0.09361667,-0.12529301,-0.01320404,-0.022
 40858,-0.01512402,0.06425468,0.10149778,0.12691344,-0.01495860,0.01667
 182,0.00242580,0.00143305,-0.00169139,0.00059604,0.00022856,0.00003585
 ,0.00000408,0.00853125,-0.00089681,-0.00070711,-0.01375381,-0.00487667
 ,-0.00074120,0.00047919,-0.00235445,-0.00015064,-0.00053363,0.00026496
 ,0.00022511,-0.04434164,0.02548922,-0.00385772,-0.08218576,0.02988903,
 -0.01151072,0.00012317,0.00181697,-0.00135395,0.00887513,-0.01898717,0
 .00210757,0.53497136,-0.00764788,0.02099204,0.00478558,0.00172598,-0.0
 0288207,0.00070277,0.00043651,-0.00023807,0.00004379,0.01415898,-0.003
 57036,-0.00573434,-0.01584964,-0.00529293,0.00431721,-0.00001528,-0.00
 276391,-0.00027840,-0.00055827,0.00048355,0.00026868,-0.00241153,-0.01
 249948,-0.00624077,0.04930513,-0.14232542,0.02754338,0.00346735,-0.006
 97347,-0.00033356,0.00625963,-0.01174284,0.00622335,0.02099033,0.45179
 661,-0.00727628,0.00745484,0.00301628,0.00107764,-0.00100049,0.0010522
 1,0.00000434,0.00000959,-0.00004876,0.01590286,-0.00468314,-0.00787162
 ,-0.01605845,0.00283046,0.01128998,0.00133354,-0.00166605,-0.00057437,
 -0.00023767,0.00041443,0.00042328,0.01048936,-0.01413659,0.00210678,-0
 .01244549,0.03071344,-0.08572453,-0.01480923,0.03177268,-0.00906237,0.
 00677730,-0.01977097,0.00165998,-0.00920008,-0.00354622,0.52024493,0.0
 0062743,-0.00082212,-0.00161586,-0.00036154,0.00014905,0.00010237,-0.0
 0010892,0.00005183,-0.00005285,-0.00020513,-0.00006624,0.00116466,0.00
 120461,-0.00012123,-0.00151429,-0.00000729,0.00003318,0.00016422,-0.00
 001422,-0.00000152,-0.00001107,0.00215607,-0.00088745,0.00028498,-0.00
 037687,0.00609511,-0.01342720,-0.00017950,0.00210574,-0.00126699,0.000
 18583,-0.00029480,0.00052768,-0.05182843,0.00267374,-0.00011061,0.0533
 5489,0.00107166,-0.00133667,-0.00076522,-0.00024647,0.00031968,-0.0001
 3226,-0.00008616,0.00005008,-0.00002208,-0.00047303,-0.00001081,0.0007
 9530,0.00113911,0.00045523,-0.00117249,0.00002226,0.00010167,0.0000485
 7,0.00002087,-0.00001011,-0.00000312,-0.00092938,0.00284279,-0.0019142
 5,0.00001264,-0.00915392,0.03310408,0.00353383,-0.00552189,0.00160665,
 -0.00078767,0.00100956,-0.00031365,0.00221574,-0.05487249,0.03311873,0
 .00352617,0.06350721,0.00265731,-0.00247169,-0.00230843,-0.00074887,0.
 00037426,-0.00006128,-0.00006633,0.00006667,0.00001112,-0.00446602,0.0
 0094902,0.00257465,0.00580755,-0.00004330,-0.00293865,-0.00057253,0.00
 054790,0.00046119,0.00004481,-0.00012004,-0.00017125,-0.00133493,-0.00
 035994,0.00279936,0.00331405,0.00252343,-0.01137700,-0.00046792,0.0017
 2133,0.00108845,0.00011656,0.00162120,0.00067714,-0.00041053,0.0419094
 8,-0.22860683,0.01425713,-0.03122459,0.27099388,0.00496985,-0.00314597
 ,0.00055174,-0.00080912,0.00039706,-0.00112742,-0.00002575,0.00007709,
 0.00005271,-0.00551685,0.00014963,0.00295206,0.00470416,0.00156065,-0.
 00370123,-0.00102079,0.00066292,0.00016035,0.00023838,-0.00015971,-0.0
 0017896,-0.00170067,0.00403791,-0.00132757,-0.01532455,-0.00066423,0.0
 1023914,0.00030800,-0.00031739,-0.00127378,0.00005593,0.00176055,0.000
 30607,-0.20595071,0.01688854,0.07210234,-0.00033133,0.00157603,0.00387
 082,0.25028688,0.00011206,-0.00599954,-0.00087451,-0.00016139,0.000649
 42,0.00001672,-0.00005739,0.00004915,-0.00002832,-0.00385307,0.0012207
 6,0.00207273,0.00333537,0.00053417,-0.00285739,0.00031788,0.00076797,-
 0.00013159,0.00018050,-0.00010997,-0.00002043,0.00833883,-0.00393816,0
 .00167049,0.02452987,0.00298325,-0.01161759,-0.00047772,0.00124325,0.0
 0045999,-0.00138568,0.00052388,-0.00060307,0.01028925,-0.04880391,-0.0
 0009615,-0.00596679,0.00223007,0.00513826,-0.00034565,0.05490254,-0.00
 065937,-0.00050638,-0.00053267,0.00001505,0.00010428,0.00010588,-0.000
 02737,0.00002788,-0.00004015,-0.00117620,0.00006161,0.00107101,0.00039
 321,-0.00008429,-0.00095098,0.00007464,0.00003210,0.00003786,-0.000042
 55,-0.00001774,-0.00002627,-0.00053795,0.00038543,0.00174676,-0.005286
 14,0.00347813,0.00028647,-0.00014227,-0.00067080,0.00072850,0.00022509
 ,-0.00016141,-0.00009566,0.07141426,-0.00392702,-0.08117534,0.02828314
 ,-0.00218729,-0.01433598,-0.07478926,0.00447173,0.08111410,0.01898407,
 -0.03702292,-0.00058610,-0.00507911,0.00469269,-0.00513783,-0.00020166
 ,0.00049828,0.00009894,-0.06406818,0.00400996,0.03129699,0.01523929,0.
 00335535,-0.00663425,-0.00280656,0.00622552,0.00000656,0.00163385,-0.0
 0136361,-0.00097206,0.01646021,0.01782668,0.00490319,-0.00869499,-0.00
 964210,0.00086986,0.00087846,0.00011080,0.00094374,0.00037553,0.001103
 02,-0.00067693,-0.14108912,-0.08942360,-0.04754958,-0.00411559,-0.0105
 9559,-0.02200112,-0.02988342,-0.03485606,-0.01774428,0.20236721,-0.023
 45322,-0.01701368,0.00731073,0.00338393,0.00262118,0.00057218,0.000183
 17,0.00003761,0.00035912,-0.02530422,0.02305359,0.00706102,0.02965079,
 -0.01172828,-0.01242040,0.00013419,0.00396664,-0.00071244,0.00077384,-
 0.00078119,-0.00052971,0.00204509,0.00178869,-0.00263059,-0.02676551,-
 0.04882158,-0.02427311,-0.00104735,0.00389969,-0.00030617,0.00312651,-
 0.00931391,-0.00059840,-0.07885670,-0.18130724,-0.06141455,-0.00647468
 ,0.00038959,-0.02063199,-0.02247742,-0.00625286,-0.00100624,0.14508156
 ,0.23946175,0.00687189,0.00445201,-0.01921475,-0.00444405,0.00087304,0
 .00190929,-0.00069298,0.00050387,-0.00027177,0.03264208,-0.00134458,0.
 00293665,-0.01472795,-0.00645585,-0.01707135,0.00080608,-0.00206879,0.
 00155054,-0.00064281,0.00050339,0.00043314,-0.00195117,0.00094811,0.00
 408723,0.00195900,-0.01181888,0.00456671,0.00162337,-0.00239090,0.0028
 6878,-0.00116311,0.00185122,0.00212953,-0.04884090,-0.06573392,-0.1267
 2964,-0.02678531,-0.03093839,-0.01880636,-0.00783702,0.00239912,0.0120
 6649,0.06318288,0.10922056,0.14954550\\-0.00000208,0.00000188,-0.00000
 186,0.00000031,-0.00000039,0.00000011,0.,0.00000044,0.00000029,0.00001
 416,-0.00000417,-0.00000655,-0.00000748,0.00000599,-0.00000161,-0.0000
 0021,0.00000217,-0.00000055,0.00000068,0.00000155,-0.00000058,0.000002
 54,-0.00000254,0.00001131,-0.00000237,-0.00000107,-0.00000774,0.000000
 54,-0.00000058,-0.00000001,0.00000089,-0.00000044,-0.00000076,0.000000
 28,0.00000213,-0.00000018,0.00000010,-0.00000049,-0.00000074,-0.000000
 45,-0.00000136,-0.00000051,-0.00000691,-0.00000312,0.00000941\\\@


 THAT'S WHAT MAKES US A GREAT COUNTRY.
 THE LITTLE THINGS ARE SERIOUS AND THE BIG ONES ARE NOT.
           WILL ROGERS
 Job cpu time:       0 days  1 hours 34 minutes 13.3 seconds.
 Elapsed time:       0 days  0 hours 23 minutes 38.2 seconds.
 File lengths (MBytes):  RWF=    179 Int=      0 D2E=      0 Chk=     11 Scr=      1
 Normal termination of Gaussian 16 at Thu Feb 15 09:34:30 2024.
